    8    8    1    1
  0.2045233E+02  0.5469458E-09  0.5469458E-09  0.5469458E-09  0.5000000E-15
  1.000000000000000E-004
  CAR 
 Si_bands                                
     32    200     32
 
  0.0000000E+00  0.0000000E+00  0.0000000E+00  0.5000000E-02
      1         -6.197957   1.000000
      2         -2.130730   1.000000
      3         -2.130730   1.000000
      4         -2.130730   1.000000
      5         -2.130730   1.000000
      6         -2.130730   1.000000
      7         -2.130730   1.000000
      8          2.820949   1.000000
      9          2.820949   1.000000
     10          2.820949   1.000000
     11          2.820949   1.000000
     12          2.820949   1.000000
     13          2.820949   1.000000
     14          5.614442   1.000000
     15          5.614442   1.000000
     16          5.614442   1.000000
     17          6.365799   0.000000
     18          6.365799   0.000000
     19          6.365799   0.000000
     20          6.365799   0.000000
     21          6.365799   0.000000
     22          6.365799   0.000000
     23          8.170277   0.000000
     24          8.170277   0.000000
     25          8.170277   0.000000
     26          8.743955   0.000000
     27         13.322259   0.000000
     28         13.322262   0.000000
     29         13.489948   0.000000
     30         15.547853   0.000000
     31         15.549108   0.000000
     32         15.550702   0.000000
 
  0.2631579E-01  0.0000000E+00  0.2631579E-01  0.5000000E-02
      1         -6.192017   1.000000
      2         -2.327600   1.000000
      3         -2.327600   1.000000
      4         -2.133362   1.000000
      5         -2.124260   1.000000
      6         -1.928393   1.000000
      7         -1.928393   1.000000
      8          2.781024   1.000000
      9          2.814278   1.000000
     10          2.814278   1.000000
     11          2.815164   1.000000
     12          2.815164   1.000000
     13          2.825718   1.000000
     14          5.549067   1.000000
     15          5.588789   1.000000
     16          5.611801   1.000000
     17          6.339489   0.000000
     18          6.339489   0.000000
     19          6.371290   0.000000
     20          6.425678   0.000000
     21          6.433128   0.000000
     22          6.433128   0.000000
     23          8.176408   0.000000
     24          8.182289   0.000000
     25          8.200683   0.000000
     26          8.788076   0.000000
     27         13.287056   0.000000
     28         13.314785   0.000000
     29         13.516605   0.000000
     30         15.452113   0.000000
     31         15.467977   0.000000
     32         15.491115   0.000000
 
  0.5263158E-01  0.0000000E+00  0.5263158E-01  0.5000000E-02
      1         -6.174178   1.000000
      2         -2.517769   1.000000
      3         -2.517769   1.000000
      4         -2.141568   1.000000
      5         -2.104852   1.000000
      6         -1.722128   1.000000
      7         -1.722128   1.000000
      8          2.669736   1.000000
      9          2.793327   1.000000
     10          2.793327   1.000000
     11          2.800289   1.000000
     12          2.800289   1.000000
     13          2.840011   1.000000
     14          5.370127   1.000000
     15          5.513828   1.000000
     16          5.603780   1.000000
     17          6.354894   0.000000
     18          6.354894   0.000000
     19          6.387746   0.000000
     20          6.539452   0.000000
     21          6.539452   0.000000
     22          6.597102   0.000000
     23          8.194790   0.000000
     24          8.217235   0.000000
     25          8.266442   0.000000
     26          8.928008   0.000000
     27         13.188436   0.000000
     28         13.293191   0.000000
     29         13.595426   0.000000
     30         15.132370   0.000000
     31         15.188966   0.000000
     32         15.306686   0.000000
 
  0.7894737E-01  0.0000000E+00  0.7894737E-01  0.5000000E-02
      1         -6.144453   1.000000
      2         -2.700242   1.000000
      3         -2.700242   1.000000
      4         -2.156265   1.000000
      5         -2.072517   1.000000
      6         -1.513815   1.000000
      7         -1.513815   1.000000
      8          2.507321   1.000000
      9          2.757933   1.000000
     10          2.757933   1.000000
     11          2.780857   1.000000
     12          2.780857   1.000000
     13          2.863774   1.000000
     14          5.113175   1.000000
     15          5.394881   1.000000
     16          5.590102   1.000000
     17          6.411206   0.000000
     18          6.411206   0.000000
     19          6.415111   0.000000
     20          6.681853   0.000000
     21          6.681853   0.000000
     22          6.860681   0.000000
     23          8.225442   0.000000
     24          8.272306   0.000000
     25          8.329780   0.000000
     26          9.163659   0.000000
     27         13.043220   0.000000
     28         13.260197   0.000000
     29         13.723083   0.000000
     30         14.694678   0.000000
     31         14.711675   0.000000
     32         15.106069   0.000000
 
  0.1052632E+00  0.0000000E+00  0.1052632E+00  0.5000000E-02
      1         -6.102898   1.000000
      2         -2.874201   1.000000
      3         -2.874201   1.000000
      4         -2.178944   1.000000
      5         -2.027263   1.000000
      6         -1.305777   1.000000
      7         -1.305777   1.000000
      8          2.316282   1.000000
      9          2.709441   1.000000
     10          2.709441   1.000000
     11          2.762135   1.000000
     12          2.762135   1.000000
     13          2.896923   1.000000
     14          4.809809   1.000000
     15          5.239106   1.000000
     16          5.570324   1.000000
     17          6.453296   0.000000
     18          6.506247   0.000000
     19          6.506247   0.000000
     20          6.857010   0.000000
     21          6.857010   0.000000
     22          7.195270   0.000000
     23          8.268345   0.000000
     24          8.344088   0.000000
     25          8.380867   0.000000
     26          9.468818   0.000000
     27         12.870300   0.000000
     28         13.221099   0.000000
     29         13.894345   0.000000
     30         14.197565   0.000000
     31         14.198401   0.000000
     32         14.825815   0.000000
 
  0.1315789E+00  0.0000000E+00  0.1315789E+00  0.5000000E-02
      1         -6.049600   1.000000
      2         -3.038981   1.000000
      3         -3.038981   1.000000
      4         -2.211618   1.000000
      5         -1.969105   1.000000
      6         -1.100818   1.000000
      7         -1.100818   1.000000
      8          2.115831   1.000000
      9          2.650217   1.000000
     10          2.650217   1.000000
     11          2.749763   1.000000
     12          2.749763   1.000000
     13          2.939336   1.000000
     14          4.481158   1.000000
     15          5.054046   1.000000
     16          5.543868   1.000000
     17          6.502167   0.000000
     18          6.636881   0.000000
     19          6.636881   0.000000
     20          7.061603   0.000000
     21          7.061603   0.000000
     22          7.583442   0.000000
     23          8.323483   0.000000
     24          8.424377   0.000000
     25          8.429579   0.000000
     26          9.810161   0.000000
     27         12.685799   0.000000
     28         13.184973   0.000000
     29         13.673403   0.000000
     30         13.673702   0.000000
     31         14.102504   0.000000
     32         14.504784   0.000000
 
  0.1578947E+00  0.0000000E+00  0.1578947E+00  0.5000000E-02
      1         -5.984662   1.000000
      2         -3.194042   1.000000
      3         -3.194042   1.000000
      4         -2.256691   1.000000
      5         -1.898072   1.000000
      6         -0.902262   1.000000
      7         -0.902262   1.000000
      8          1.920763   1.000000
      9          2.583147   1.000000
     10          2.583147   1.000000
     11          2.749464   1.000000
     12          2.749464   1.000000
     13          2.990846   1.000000
     14          4.140185   1.000000
     15          4.846726   1.000000
     16          5.510082   1.000000
     17          6.561547   0.000000
     18          6.799499   0.000000
     19          6.799499   0.000000
     20          7.292565   0.000000
     21          7.292565   0.000000
     22          8.012471   0.000000
     23          8.390837   0.000000
     24          8.464402   0.000000
     25          8.526640   0.000000
     26         10.158506   0.000000
     27         12.501903   0.000000
     28         13.139565   0.000000
     29         13.139637   0.000000
     30         13.166125   0.000000
     31         14.141621   0.000000
     32         14.339641   0.000000
 
  0.1842105E+00  0.0000000E+00  0.1842105E+00  0.5000000E-02
      1         -5.908184   1.000000
      2         -3.338942   1.000000
      3         -3.338942   1.000000
      4         -2.316693   1.000000
      5         -1.814189   1.000000
      6         -0.713850   1.000000
      7         -0.713850   1.000000
      8          1.742156   1.000000
      9          2.511213   1.000000
     10          2.511213   1.000000
     11          2.766848   1.000000
     12          2.766848   1.000000
     13          3.051245   1.000000
     14          3.794745   1.000000
     15          4.623249   1.000000
     16          5.468277   1.000000
     17          6.631207   0.000000
     18          6.990440   0.000000
     19          6.990440   0.000000
     20          7.547187   0.000000
     21          7.547187   0.000000
     22          8.470397   0.000000
     23          8.473361   0.000000
     24          8.502330   0.000000
     25          8.633978   0.000000
     26         10.486198   0.000000
     27         12.327416   0.000000
     28         12.604657   0.000000
     29         12.604662   0.000000
     30         13.186392   0.000000
     31         13.815713   0.000000
     32         14.155968   0.000000
 
  0.2105263E+00  0.0000000E+00  0.2105263E+00  0.5000000E-02
      1         -5.820319   1.000000
      2         -3.473298   1.000000
      3         -3.473298   1.000000
      4         -2.393941   1.000000
      5         -1.717498   1.000000
      6         -0.539533   1.000000
      7         -0.539533   1.000000
      8          1.588152   1.000000
      9          2.437179   1.000000
     10          2.437179   1.000000
     11          2.807076   1.000000
     12          2.807076   1.000000
     13          3.120273   1.000000
     14          3.449791   1.000000
     15          4.388793   1.000000
     16          5.417802   1.000000
     17          6.710861   0.000000
     18          7.206238   0.000000
     19          7.206238   0.000000
     20          7.823133   0.000000
     21          7.823133   0.000000
     22          8.537607   0.000000
     23          8.562134   0.000000
     24          8.750990   0.000000
     25          8.959615   0.000000
     26         10.764607   0.000000
     27         12.074634   0.000000
     28         12.074638   0.000000
     29         12.168637   0.000000
     30         13.272339   0.000000
     31         13.479156   0.000000
     32         13.898972   0.000000
 
  0.2368421E+00  0.0000000E+00  0.2368421E+00  0.5000000E-02
      1         -5.721250   1.000000
      2         -3.596796   1.000000
      3         -3.596796   1.000000
      4         -2.490105   1.000000
      5         -1.608029   1.000000
      6         -0.383018   1.000000
      7         -0.383018   1.000000
      8          1.464442   1.000000
      9          2.363479   1.000000
     10          2.363479   1.000000
     11          2.874412   1.000000
     12          2.874412   1.000000
     13          3.108545   1.000000
     14          3.197633   1.000000
     15          4.147648   1.000000
     16          5.358121   1.000000
     17          6.800147   0.000000
     18          7.443767   0.000000
     19          7.443767   0.000000
     20          8.118403   0.000000
     21          8.118403   0.000000
     22          8.568387   0.000000
     23          8.666016   0.000000
     24          8.877483   0.000000
     25          9.466165   0.000000
     26         10.969886   0.000000
     27         11.553845   0.000000
     28         11.553846   0.000000
     29         12.030061   0.000000
     30         13.155269   0.000000
     31         13.455390   0.000000
     32         13.641292   0.000000
 
  0.2631579E+00  0.0000000E+00  0.2631579E+00  0.5000000E-02
      1         -5.611217   1.000000
      2         -3.709179   1.000000
      3         -3.709179   1.000000
      4         -2.605844   1.000000
      5         -1.485827   1.000000
      6         -0.247200   1.000000
      7         -0.247200   1.000000
      8          1.374492   1.000000
      9          2.292149   1.000000
     10          2.292149   1.000000
     11          2.773160   1.000000
     12          2.971575   1.000000
     13          2.971575   1.000000
     14          3.282960   1.000000
     15          3.903377   1.000000
     16          5.288897   1.000000
     17          6.898629   0.000000
     18          7.700241   0.000000
     19          7.700241   0.000000
     20          8.431224   0.000000
     21          8.431224   0.000000
     22          8.591855   0.000000
     23          8.782013   0.000000
     24          9.013534   0.000000
     25          9.988430   0.000000
     26         11.045995   0.000000
     27         11.045995   0.000000
     28         11.095915   0.000000
     29         11.914866   0.000000
     30         12.837148   0.000000
     31         13.364747   0.000000
     32         13.379007   0.000000
 
  0.2894737E+00  0.0000000E+00  0.2894737E+00  0.5000000E-02
      1         -5.490474   1.000000
      2         -3.810224   1.000000
      3         -3.810224   1.000000
      4         -2.740624   1.000000
      5         -1.350947   1.000000
      6         -0.133632   1.000000
      7         -0.133632   1.000000
      8          1.319719   1.000000
      9          2.224864   1.000000
     10          2.224864   1.000000
     11          2.445149   1.000000
     12          3.099082   1.000000
     13          3.099082   1.000000
     14          3.375829   1.000000
     15          3.658963   1.000000
     16          5.210042   1.000000
     17          7.005765   0.000000
     18          7.973188   0.000000
     19          7.973188   0.000000
     20          8.604505   0.000000
     21          8.759892   0.000000
     22          8.759892   0.000000
     23          8.910082   0.000000
     24          9.159327   0.000000
     25         10.520832   0.000000
     26         10.554861   0.000000
     27         10.554861   0.000000
     28         11.158784   0.000000
     29         11.825169   0.000000
     30         12.523916   0.000000
     31         13.078650   0.000000
     32         13.095083   0.000000
 
  0.3157895E+00  0.0000000E+00  0.3157895E+00  0.5000000E-02
      1         -5.359332   1.000000
      2         -3.899759   1.000000
      3         -3.899759   1.000000
      4         -2.892677   1.000000
      5         -1.203443   1.000000
      6         -0.042212   1.000000
      7         -0.042212   1.000000
      8          1.299814   1.000000
      9          2.125591   1.000000
     10          2.162974   1.000000
     11          2.162974   1.000000
     12          3.254741   1.000000
     13          3.254741   1.000000
     14          3.416905   1.000000
     15          3.475749   1.000000
     16          5.121741   1.000000
     17          7.120893   0.000000
     18          8.260377   0.000000
     19          8.260377   0.000000
     20          8.602512   0.000000
     21          9.050176   0.000000
     22          9.102072   0.000000
     23          9.102072   0.000000
     24          9.315084   0.000000
     25         10.085415   0.000000
     26         10.085415   0.000000
     27         11.052454   0.000000
     28         11.185186   0.000000
     29         11.762313   0.000000
     30         12.219722   0.000000
     31         12.759185   0.000000
     32         12.808661   0.000000
 
  0.3421053E+00  0.0000000E+00  0.3421053E+00  0.5000000E-02
      1         -5.218179   1.000000
      2         -3.977626   1.000000
      3         -3.977626   1.000000
      4         -3.059371   1.000000
      5         -1.043378   1.000000
      6          0.028684   1.000000
      7          0.028684   1.000000
      8          1.313163   1.000000
      9          1.815312   1.000000
     10          2.107550   1.000000
     11          2.107550   1.000000
     12          3.179368   1.000000
     13          3.433459   1.000000
     14          3.433459   1.000000
     15          3.582148   1.000000
     16          5.024521   1.000000
     17          7.243196   0.000000
     18          8.559743   0.000000
     19          8.559743   0.000000
     20          8.582325   0.000000
     21          9.202239   0.000000
     22          9.439921   0.000000
     23          9.439921   0.000000
     24          9.481036   0.000000
     25          9.659149   0.000000
     26          9.659149   0.000000
     27         11.199806   0.000000
     28         11.543841   0.000000
     29         11.726878   0.000000
     30         11.922848   0.000000
     31         12.495006   0.000000
     32         12.517675   0.000000
 
  0.3684211E+00  0.0000000E+00  0.3684211E+00  0.5000000E-02
      1         -5.067466   1.000000
      2         -4.043705   1.000000
      3         -4.043705   1.000000
      4         -3.237565   1.000000
      5         -0.870841   1.000000
      6          0.081704   1.000000
      7          0.081704   1.000000
      8          1.357346   1.000000
      9          1.514930   1.000000
     10          2.059437   1.000000
     11          2.059437   1.000000
     12          2.948254   1.000000
     13          3.627156   1.000000
     14          3.627156   1.000000
     15          3.694349   1.000000
     16          4.919183   1.000000
     17          7.371663   0.000000
     18          8.541395   0.000000
     19          8.869286   0.000000
     20          8.869286   0.000000
     21          9.211127   0.000000
     22          9.211127   0.000000
     23          9.366209   0.000000
     24          9.657371   0.000000
     25          9.843593   0.000000
     26          9.843593   0.000000
     27         11.220576   0.000000
     28         11.636748   0.000000
     29         11.718995   0.000000
     30         11.793750   0.000000
     31         12.186120   0.000000
     32         12.192319   0.000000
 
  0.3947368E+00  0.0000000E+00  0.3947368E+00  0.5000000E-02
      1         -4.907777   1.000000
      2         -4.097901   1.000000
      3         -4.097901   1.000000
      4         -3.423994   1.000000
      5         -0.685908   1.000000
      6          0.119902   1.000000
      7          0.119902   1.000000
      8          1.224940   1.000000
      9          1.429607   1.000000
     10          2.019279   1.000000
     11          2.019279   1.000000
     12          2.725274   1.000000
     13          3.811611   1.000000
     14          3.824608   1.000000
     15          3.824608   1.000000
     16          4.806764   1.000000
     17          7.505052   0.000000
     18          8.478798   0.000000
     19          8.841180   0.000000
     20          8.841180   0.000000
     21          9.186936   0.000000
     22          9.186936   0.000000
     23          9.542010   0.000000
     24          9.844229   0.000000
     25         10.220760   0.000000
     26         10.220760   0.000000
     27         11.258736   0.000000
     28         11.360556   0.000000
     29         11.662520   0.000000
     30         11.738302   0.000000
     31         11.869419   0.000000
     32         11.869840   0.000000
 
  0.4210526E+00  0.0000000E+00  0.4210526E+00  0.5000000E-02
      1         -4.739746   1.000000
      2         -4.140128   1.000000
      3         -4.140128   1.000000
      4         -3.615547   1.000000
      5         -0.488673   1.000000
      6          0.146242   1.000000
      7          0.146242   1.000000
      8          0.945728   1.000000
      9          1.527139   1.000000
     10          1.987575   1.000000
     11          1.987576   1.000000
     12          2.512028   1.000000
     13          3.933070   1.000000
     14          4.011056   1.000000
     15          4.011056   1.000000
     16          4.688502   1.000000
     17          7.641826   0.000000
     18          8.395495   0.000000
     19          8.521222   0.000000
     20          8.521222   0.000000
     21          9.510291   0.000000
     22          9.510291   0.000000
     23          9.729559   0.000000
     24         10.041676   0.000000
     25         10.609990   0.000000
     26         10.609991   0.000000
     27         11.094706   0.000000
     28         11.320311   0.000000
     29         11.428260   0.000000
     30         11.547026   0.000000
     31         11.547886   0.000000
     32         11.784725   0.000000
 
  0.4473684E+00  0.0000000E+00  0.4473684E+00  0.5000000E-02
      1         -4.564173   1.000000
      2         -4.170332   1.000000
      3         -4.170332   1.000000
      4         -3.809386   1.000000
      5         -0.279247   1.000000
      6          0.163209   1.000000
      7          0.163209   1.000000
      8          0.677611   1.000000
      9          1.647313   1.000000
     10          1.964687   1.000000
     11          1.964687   1.000000
     12          2.310060   1.000000
     13          4.057765   1.000000
     14          4.167960   1.000000
     15          4.167960   1.000000
     16          4.565752   1.000000
     17          7.780085   0.000000
     18          8.270173   0.000000
     19          8.270173   0.000000
     20          8.294047   0.000000
     21          9.835665   0.000000
     22          9.835671   0.000000
     23          9.928766   0.000000
     24         10.249694   0.000000
     25         10.839437   0.000000
     26         11.005248   0.000000
     27         11.005292   0.000000
     28         11.179772   0.000000
     29         11.222140   0.000000
     30         11.222229   0.000000
     31         11.407198   0.000000
     32         11.868666   0.000000
 
  0.4736842E+00  0.0000000E+00  0.4736842E+00  0.5000000E-02
      1         -4.382034   1.000000
      2         -4.188471   1.000000
      3         -4.188471   1.000000
      4         -4.003066   1.000000
      5         -0.057748   1.000000
      6          0.172646   1.000000
      7          0.172646   1.000000
      8          0.420844   1.000000
      9          1.787728   1.000000
     10          1.950860   1.000000
     11          1.950860   1.000000
     12          2.120924   1.000000
     13          4.184607   1.000000
     14          4.274449   1.000000
     15          4.274449   1.000000
     16          4.439924   1.000000
     17          7.917495   0.000000
     18          8.107759   0.000000
     19          8.107759   0.000000
     20          8.178001   0.000000
     21         10.139498   0.000000
     22         10.152494   0.000000
     23         10.152496   0.000000
     24         10.468144   0.000000
     25         10.594997   0.000000
     26         10.905670   0.000000
     27         10.905678   0.000000
     28         10.934451   0.000000
     29         11.393973   0.000000
     30         11.394910   0.000000
     31         11.520587   0.000000
     32         11.818576   0.000000
 
  0.5000000E+00  0.0000000E+00  0.5000000E+00  0.5000000E-02
      1         -4.194518   1.000000
      2         -4.194518   1.000000
      3         -4.194518   1.000000
      4         -4.194518   1.000000
      5          0.175670   1.000000
      6          0.175670   1.000000
      7          0.175670   1.000000
      8          0.175670   1.000000
      9          1.946237   1.000000
     10          1.946237   1.000000
     11          1.946237   1.000000
     12          1.946237   1.000000
     13          4.312426   1.000000
     14          4.312426   1.000000
     15          4.312426   1.000000
     16          4.312426   1.000000
     17          8.051243   0.000000
     18          8.051243   0.000000
     19          8.051243   0.000000
     20          8.051243   0.000000
     21         10.361625   0.000000
     22         10.361625   0.000000
     23         10.361628   0.000000
     24         10.361631   0.000000
     25         10.696656   0.000000
     26         10.696659   0.000000
     27         10.696666   0.000000
     28         10.696673   0.000000
     29         11.653519   0.000000
     30         11.653732   0.000000
     31         11.654828   0.000000
     32         11.661126   0.000000
 
  0.5000000E+00  0.0000000E+00  0.5000000E+00  0.5000000E-02
      1         -4.194518   1.000000
      2         -4.194518   1.000000
      3         -4.194518   1.000000
      4         -4.194518   1.000000
      5          0.175670   1.000000
      6          0.175670   1.000000
      7          0.175670   1.000000
      8          0.175670   1.000000
      9          1.946237   1.000000
     10          1.946237   1.000000
     11          1.946237   1.000000
     12          1.946237   1.000000
     13          4.312426   1.000000
     14          4.312426   1.000000
     15          4.312426   1.000000
     16          4.312426   1.000000
     17          8.051243   0.000000
     18          8.051243   0.000000
     19          8.051243   0.000000
     20          8.051243   0.000000
     21         10.361625   0.000000
     22         10.361625   0.000000
     23         10.361625   0.000000
     24         10.361626   0.000000
     25         10.696656   0.000000
     26         10.696656   0.000000
     27         10.696656   0.000000
     28         10.696658   0.000000
     29         11.653481   0.000000
     30         11.653510   0.000000
     31         11.653661   0.000000
     32         11.655608   0.000000
 
  0.5000000E+00  0.1315789E-01  0.5131579E+00  0.5000000E-02
      1         -4.241036   1.000000
      2         -4.241036   1.000000
      3         -4.146217   1.000000
      4         -4.146217   1.000000
      5          0.111637   1.000000
      6          0.111637   1.000000
      7          0.231102   1.000000
      8          0.231102   1.000000
      9          1.910848   1.000000
     10          1.910848   1.000000
     11          1.994414   1.000000
     12          1.994414   1.000000
     13          4.278255   1.000000
     14          4.278255   1.000000
     15          4.342137   1.000000
     16          4.342137   1.000000
     17          8.022053   0.000000
     18          8.022053   0.000000
     19          8.087328   0.000000
     20          8.087328   0.000000
     21         10.279517   0.000000
     22         10.279517   0.000000
     23         10.393072   0.000000
     24         10.393072   0.000000
     25         10.644988   0.000000
     26         10.644988   0.000000
     27         10.760712   0.000000
     28         10.760713   0.000000
     29         11.607770   0.000000
     30         11.608241   0.000000
     31         11.680920   0.000000
     32         11.682021   0.000000
 
  0.5000000E+00  0.2631579E-01  0.5263158E+00  0.5000000E-02
      1         -4.285621   1.000000
      2         -4.285621   1.000000
      3         -4.096300   1.000000
      4         -4.096300   1.000000
      5          0.039809   1.000000
      6          0.039809   1.000000
      7          0.277588   1.000000
      8          0.277588   1.000000
      9          1.887674   1.000000
     10          1.887674   1.000000
     11          2.055481   1.000000
     12          2.055481   1.000000
     13          4.239841   1.000000
     14          4.239841   1.000000
     15          4.367262   1.000000
     16          4.367262   1.000000
     17          8.000139   0.000000
     18          8.000139   0.000000
     19          8.129795   0.000000
     20          8.129795   0.000000
     21         10.155151   0.000000
     22         10.155151   0.000000
     23         10.379708   0.000000
     24         10.379710   0.000000
     25         10.603261   0.000000
     26         10.603262   0.000000
     27         10.830251   0.000000
     28         10.830257   0.000000
     29         11.550634   0.000000
     30         11.551298   0.000000
     31         11.698323   0.000000
     32         11.702169   0.000000
 
  0.5000000E+00  0.3947368E-01  0.5394737E+00  0.5000000E-02
      1         -4.328152   1.000000
      2         -4.328152   1.000000
      3         -4.044962   1.000000
      4         -4.044962   1.000000
      5         -0.038656   1.000000
      6         -0.038656   1.000000
      7          0.315261   1.000000
      8          0.315261   1.000000
      9          1.875773   1.000000
     10          1.875773   1.000000
     11          2.129025   1.000000
     12          2.129025   1.000000
     13          4.197446   1.000000
     14          4.197446   1.000000
     15          4.387707   1.000000
     16          4.387707   1.000000
     17          7.985738   0.000000
     18          7.985738   0.000000
     19          8.177936   0.000000
     20          8.177936   0.000000
     21         10.003208   0.000000
     22         10.003211   0.000000
     23         10.332960   0.000000
     24         10.332966   0.000000
     25         10.565232   0.000000
     26         10.565235   0.000000
     27         10.897884   0.000000
     28         10.897907   0.000000