       N       E                     dE             d eps       ncg     rms          rms(c)
DAV:   1    -0.367604104201E+02   -0.36760E+02   -0.59686E+01 14600   0.267E+01
DAV:   2    -0.406784473279E+02   -0.39180E+01   -0.35496E+01 16176   0.268E+01
DAV:   3    -0.408409475064E+02   -0.16250E+00   -0.16065E+00 15960   0.375E+00
DAV:   4    -0.408427115377E+02   -0.17640E-02   -0.17634E-02 15368   0.514E-01
DAV:   5    -0.408427403234E+02   -0.28786E-04   -0.28784E-04 16040   0.610E-02
DAV:   6    -0.408427409311E+02   -0.60770E-06   -0.60769E-06 14520   0.961E-03
   1 F= -.40842741E+02 E0= -.40842741E+02  d E =-.130788E-14
