 vasp.6.4.2 20Jul23 (build Nov 02 2024 22:18:10) complex                        
  
 executed on             LinuxIFC date 2026.05.03  21:03:47
 running    4 mpi-ranks, with    6 threads/rank, on    1 nodes
 distrk:  each k-point on    4 cores,    1 groups
 distr:  one band on NCORE=   1 cores,    4 groups


--------------------------------------------------------------------------------------------------------


 INCAR:
   ALGO = Normal
   EDIFF = 1e-06
   ENCUT = 520.0
   ICHARG = 11
   ISMEAR = 0
   LCHARG = False
   LWAVE = False
   NBANDS = 32
   PREC = Accurate
   SIGMA = 0.05
   SYSTEM = Si_bands

 POTCAR:    PAW_PBE Si 05Jan2001                  
 POTCAR:    PAW_PBE Si 05Jan2001                  
   SHA256 =  79d9987ad8750f624c4d6acb2a16d13abf6a777132adc04dc6c8399be72b42bb Si/POTCAR             
   COPYR  = (c) Copyright 05Jan2001 Georg Kresse                                                    
   COPYR  = This file is part of the software VASP. Any use, copying, and all other rights are regul
   COPYR  = If you do not have a valid VASP license, you may not use, copy or distribute this file. 
   VRHFIN =Si: s2p2                                                                                 
   LEXCH  = PE                                                                                      
   EATOM  =   103.0669 eV,    7.5752 Ry                                                             
                                                                                                    
   TITEL  = PAW_PBE Si 05Jan2001                                                                    
   LULTRA =        F    use ultrasoft PP ?                                                          
   IUNSCR =        1    unscreen: 0-lin 1-nonlin 2-no                                               
   RPACOR =    1.500    partial core radius                                                         
   POMASS =   28.085; ZVAL   =    4.000    mass and valenz                                          
   RCORE  =    1.900    outmost cutoff radius                                                       
   RWIGS  =    2.480; RWIGS  =    1.312    wigner-seitz radius (au A)                               
   ENMAX  =  245.345; ENMIN  =  184.009 eV                                                          
   ICORE  =        2    local potential                                                             
   LCOR   =        T    correct aug charges                                                         
   LPAW   =        T    paw PP                                                                      
   EAUG   =  322.069                                                                                
   DEXC   =    0.000                                                                                
   RMAX   =    1.950    core radius for proj-oper                                                   
   RAUG   =    1.300    factor for augmentation sphere                                              
   RDEP   =    1.993    radius for radial grids                                                     
   RDEPT  =    1.837    core radius for aug-charge                                                  
                                                                                                    
   Atomic configuration                                                                             
    6 entries                                                                                       
     n  l   j            E        occ.                                                              
     1  0  0.50     -1785.8828   2.0000                                                             
     2  0  0.50      -139.4969   2.0000                                                             
     2  1  1.50       -95.5546   6.0000                                                             
     3  0  0.50       -10.8127   2.0000                                                             
     3  1  0.50        -4.0811   2.0000                                                             
     3  2  1.50        -4.0817   0.0000                                                             
   Description                                                                                      
     l       E           TYP  RCUT    TYP  RCUT                                                     
     0    -10.8127223     23  1.900                                                                 
     0     -7.6451159     23  1.900                                                                 
     1     -4.0811372     23  1.900                                                                 
     1      2.4879257     23  1.900                                                                 
     2     -4.0817478      7  1.900                                                                 
  local pseudopotential read in
  partial core-charges read in
  partial kinetic energy density read in
  atomic valenz-charges read in
  non local Contribution for L=           0  read in
    real space projection operators read in
  non local Contribution for L=           0  read in
    real space projection operators read in
  non local Contribution for L=           1  read in
    real space projection operators read in
  non local Contribution for L=           1  read in
    real space projection operators read in
    PAW grid and wavefunctions read in
 
   number of l-projection  operators is LMAX  =           4
   number of lm-projection operators is LMMAX =           8
 
  PAW_PBE Si 05Jan2001                  :
 energy of atom  1       EATOM= -103.0669
 kinetic energy error for atom=    0.0005 (will be added to EATOM!!)
 
 
 POSCAR: Si diamond Fd-3m from CIF
  positions in direct lattice
  velocities in cartesian coordinates
 exchange correlation table for  LEXCH =        8
   RHO(1)=    0.500       N(1)  =     2000
   RHO(2)=  100.500       N(2)  =     4000

 VTST: version 4.1, (05/19/21)

 CHAIN: initializing optimizer
 
 OPT: Using VASP Dynamics algorithm
 CHAIN: Read ICHAIN            0
 
 POSCAR: Si diamond Fd-3m from CIF
  positions in direct lattice
  velocities in cartesian coordinates
 


--------------------------------------------------------------------------------------------------------


 ion  position               nearest neighbor table
   1  0.000  0.000  0.000-   5 2.37   7 2.37   8 2.37   6 2.37
   2  0.000  0.500  0.500-   5 2.37   6 2.37   8 2.37   7 2.37
   3  0.500  0.500  0.000-   5 2.37   6 2.37   7 2.37   8 2.37
   4  0.500  0.000  0.500-   6 2.37   7 2.37   8 2.37   5 2.37
   5  0.750  0.250  0.750-   1 2.37   2 2.37   3 2.37   4 2.37
   6  0.250  0.250  0.250-   2 2.37   3 2.37   4 2.37   1 2.37
   7  0.250  0.750  0.750-   1 2.37   3 2.37   4 2.37   2 2.37
   8  0.750  0.750  0.250-   1 2.37   2 2.37   4 2.37   3 2.37
 
  LATTYP: Found a simple cubic cell.
 ALAT       =     5.4694575682
  
  Lattice vectors:
  
 A1 = (   5.4694575682,   0.0000000000,   0.0000000000)
 A2 = (   0.0000000000,   5.4694575682,   0.0000000000)
 A3 = (   0.0000000000,   0.0000000000,   5.4694575682)


Analysis of symmetry for initial positions (statically):
=====================================================================
 Subroutine PRICEL returns following result:
 
  LATTYP: Found a face centered cubic cell.
 ALAT       =     5.4694575682
  
  Lattice vectors:
  
 A1 = (   2.7347287841,  -2.7347287841,   0.0000000000)
 A2 = (   2.7347287841,   0.0000000000,   2.7347287841)
 A3 = (  -0.0000000000,  -2.7347287841,   2.7347287841)
 
   4 primitive cells build up your supercell.
 

 Routine SETGRP: Setting up the symmetry group for a 
 simple cubic supercell.


 Subroutine GETGRP returns: Found 48 space group operations
 (whereof 24 operations were pure point group operations)
 out of a pool of 48 trial point group operations.


The static configuration has the point symmetry T_d .
 The point group associated with its full space group is O_h .


Analysis of symmetry for dynamics (positions and initial velocities):
=====================================================================
 Subroutine PRICEL returns following result:
 
  LATTYP: Found a face centered cubic cell.
 ALAT       =     5.4694575682
  
  Lattice vectors:
  
 A1 = (   2.7347287841,  -2.7347287841,   0.0000000000)
 A2 = (   2.7347287841,   0.0000000000,   2.7347287841)
 A3 = (  -0.0000000000,  -2.7347287841,   2.7347287841)
 
   4 primitive cells build up your supercell.
 

 Routine SETGRP: Setting up the symmetry group for a 
 simple cubic supercell.


 Subroutine GETGRP returns: Found 48 space group operations
 (whereof 24 operations were pure point group operations)
 out of a pool of 48 trial point group operations.


The dynamic configuration has the point symmetry T_d .
 The point group associated with its full space group is O_h .


 Subroutine INISYM returns: Found 48 space group operations
 (whereof 24 operations are pure point group operations),
 and found     4 'primitive' translations


----------------------------------------------------------------------------------------

                                     Primitive cell                                     

  volume of cell :      40.9047

  direct lattice vectors                    reciprocal lattice vectors
     2.734728784 -2.734728784  0.000000000     0.182833487 -0.182833487 -0.182833487
     2.734728784  0.000000000  2.734728784     0.182833487  0.182833487  0.182833487
    -0.000000000 -2.734728784  2.734728784    -0.182833487 -0.182833487  0.182833487

  length of vectors
     3.867490536  3.867490536  3.867490536     0.316676889  0.316676889  0.316676889

  position of ions in fractional coordinates (direct lattice)
     0.000000000  0.000000000  0.000000000
     0.750000000  0.750000000  0.750000000

  ion indices of the primitive-cell ions
   primitive index   ion index
                 1           1
                 2           5

----------------------------------------------------------------------------------------

 
 
 KPOINTS: Si band structure - FCC k-path          

Interpolating k-points between supplied coordinates.

 Line segments in fractional coordinates (reciprocal lattice):
    0.000000  0.000000  0.000000  ...  0.500000  0.000000  0.500000
    0.500000  0.000000  0.500000  ...  0.500000  0.250000  0.750000
    0.500000  0.250000  0.750000  ...  0.500000  0.500000  0.500000
    0.500000  0.500000  0.500000  ...  0.000000  0.000000  0.000000
    0.000000  0.000000  0.000000  ...  0.375000  0.375000  0.750000
    0.375000  0.375000  0.750000  ...  0.500000  0.000000  0.500000
    0.500000  0.000000  0.500000  ...  0.625000  0.250000  0.625000
    0.625000  0.250000  0.625000  ...  0.500000  0.250000  0.750000
    0.500000  0.250000  0.750000  ...  0.500000  0.500000  0.500000
    0.500000  0.500000  0.500000  ...  0.375000  0.375000  0.750000

 Generated    20 points on each line segment, for a total of    200 k-points:

 Following reciprocal coordinates:
            Coordinates               Weight
  0.000000  0.000000  0.000000      0.005000
  0.026316  0.000000  0.026316      0.005000
  0.052632  0.000000  0.052632      0.005000
  0.078947  0.000000  0.078947      0.005000
  0.105263  0.000000  0.105263      0.005000
  0.131579  0.000000  0.131579      0.005000
  0.157895  0.000000  0.157895      0.005000
  0.184211  0.000000  0.184211      0.005000
  0.210526  0.000000  0.210526      0.005000
  0.236842  0.000000  0.236842      0.005000
  0.263158  0.000000  0.263158      0.005000
  0.289474  0.000000  0.289474      0.005000
  0.315789  0.000000  0.315789      0.005000
  0.342105  0.000000  0.342105      0.005000
  0.368421  0.000000  0.368421      0.005000
  0.394737  0.000000  0.394737      0.005000
  0.421053  0.000000  0.421053      0.005000
  0.447368  0.000000  0.447368      0.005000
  0.473684  0.000000  0.473684      0.005000
  0.500000  0.000000  0.500000      0.005000
  0.500000  0.000000  0.500000      0.005000
  0.500000  0.013158  0.513158      0.005000
  0.500000  0.026316  0.526316      0.005000
  0.500000  0.039474  0.539474      0.005000
  0.500000  0.052632  0.552632      0.005000
  0.500000  0.065789  0.565789      0.005000
  0.500000  0.078947  0.578947      0.005000
  0.500000  0.092105  0.592105      0.005000
  0.500000  0.105263  0.605263      0.005000
  0.500000  0.118421  0.618421      0.005000
  0.500000  0.131579  0.631579      0.005000
  0.500000  0.144737  0.644737      0.005000
  0.500000  0.157895  0.657895      0.005000
  0.500000  0.171053  0.671053      0.005000
  0.500000  0.184211  0.684211      0.005000
  0.500000  0.197368  0.697368      0.005000
  0.500000  0.210526  0.710526      0.005000
  0.500000  0.223684  0.723684      0.005000
  0.500000  0.236842  0.736842      0.005000
  0.500000  0.250000  0.750000      0.005000
  0.500000  0.250000  0.750000      0.005000
  0.500000  0.263158  0.736842      0.005000
  0.500000  0.276316  0.723684      0.005000
  0.500000  0.289474  0.710526      0.005000
  0.500000  0.302632  0.697368      0.005000
  0.500000  0.315789  0.684211      0.005000
  0.500000  0.328947  0.671053      0.005000
  0.500000  0.342105  0.657895      0.005000
  0.500000  0.355263  0.644737      0.005000
  0.500000  0.368421  0.631579      0.005000
  0.500000  0.381579  0.618421      0.005000
  0.500000  0.394737  0.605263      0.005000
  0.500000  0.407895  0.592105      0.005000
  0.500000  0.421053  0.578947      0.005000
  0.500000  0.434211  0.565789      0.005000
  0.500000  0.447368  0.552632      0.005000
  0.500000  0.460526  0.539474      0.005000
  0.500000  0.473684  0.526316      0.005000
  0.500000  0.486842  0.513158      0.005000
  0.500000  0.500000  0.500000      0.005000
  0.500000  0.500000  0.500000      0.005000
  0.473684  0.473684  0.473684      0.005000
  0.447368  0.447368  0.447368      0.005000
  0.421053  0.421053  0.421053      0.005000
  0.394737  0.394737  0.394737      0.005000
  0.368421  0.368421  0.368421      0.005000
  0.342105  0.342105  0.342105      0.005000
  0.315789  0.315789  0.315789      0.005000
  0.289474  0.289474  0.289474      0.005000
  0.263158  0.263158  0.263158      0.005000
  0.236842  0.236842  0.236842      0.005000
  0.210526  0.210526  0.210526      0.005000
  0.184211  0.184211  0.184211      0.005000
  0.157895  0.157895  0.157895      0.005000
  0.131579  0.131579  0.131579      0.005000
  0.105263  0.105263  0.105263      0.005000
  0.078947  0.078947  0.078947      0.005000
  0.052632  0.052632  0.052632      0.005000
  0.026316  0.026316  0.026316      0.005000
  0.000000  0.000000  0.000000      0.005000
  0.000000  0.000000  0.000000      0.005000
  0.019737  0.019737  0.039474      0.005000
  0.039474  0.039474  0.078947      0.005000
  0.059211  0.059211  0.118421      0.005000
  0.078947  0.078947  0.157895      0.005000
  0.098684  0.098684  0.197368      0.005000
  0.118421  0.118421  0.236842      0.005000
  0.138158  0.138158  0.276316      0.005000
  0.157895  0.157895  0.315789      0.005000
  0.177632  0.177632  0.355263      0.005000
  0.197368  0.197368  0.394737      0.005000
  0.217105  0.217105  0.434211      0.005000
  0.236842  0.236842  0.473684      0.005000
  0.256579  0.256579  0.513158      0.005000
  0.276316  0.276316  0.552632      0.005000
  0.296053  0.296053  0.592105      0.005000
  0.315789  0.315789  0.631579      0.005000
  0.335526  0.335526  0.671053      0.005000
  0.355263  0.355263  0.710526      0.005000
  0.375000  0.375000  0.750000      0.005000
  0.375000  0.375000  0.750000      0.005000
  0.381579  0.355263  0.736842      0.005000
  0.388158  0.335526  0.723684      0.005000
  0.394737  0.315789  0.710526      0.005000
  0.401316  0.296053  0.697368      0.005000
  0.407895  0.276316  0.684211      0.005000
  0.414474  0.256579  0.671053      0.005000
  0.421053  0.236842  0.657895      0.005000
  0.427632  0.217105  0.644737      0.005000
  0.434211  0.197368  0.631579      0.005000
  0.440789  0.177632  0.618421      0.005000
  0.447368  0.157895  0.605263      0.005000
  0.453947  0.138158  0.592105      0.005000
  0.460526  0.118421  0.578947      0.005000
  0.467105  0.098684  0.565789      0.005000
  0.473684  0.078947  0.552632      0.005000
  0.480263  0.059211  0.539474      0.005000
  0.486842  0.039474  0.526316      0.005000
  0.493421  0.019737  0.513158      0.005000
  0.500000  0.000000  0.500000      0.005000
  0.500000  0.000000  0.500000      0.005000
  0.506579  0.013158  0.506579      0.005000
  0.513158  0.026316  0.513158      0.005000
  0.519737  0.039474  0.519737      0.005000
  0.526316  0.052632  0.526316      0.005000
  0.532895  0.065789  0.532895      0.005000
  0.539474  0.078947  0.539474      0.005000
  0.546053  0.092105  0.546053      0.005000
  0.552632  0.105263  0.552632      0.005000
  0.559211  0.118421  0.559211      0.005000
  0.565789  0.131579  0.565789      0.005000
  0.572368  0.144737  0.572368      0.005000
  0.578947  0.157895  0.578947      0.005000
  0.585526  0.171053  0.585526      0.005000
  0.592105  0.184211  0.592105      0.005000
  0.598684  0.197368  0.598684      0.005000
  0.605263  0.210526  0.605263      0.005000
  0.611842  0.223684  0.611842      0.005000
  0.618421  0.236842  0.618421      0.005000
  0.625000  0.250000  0.625000      0.005000
  0.625000  0.250000  0.625000      0.005000
  0.618421  0.250000  0.631579      0.005000
  0.611842  0.250000  0.638158      0.005000
  0.605263  0.250000  0.644737      0.005000
  0.598684  0.250000  0.651316      0.005000
  0.592105  0.250000  0.657895      0.005000
  0.585526  0.250000  0.664474      0.005000
  0.578947  0.250000  0.671053      0.005000
  0.572368  0.250000  0.677632      0.005000
  0.565789  0.250000  0.684211      0.005000
  0.559211  0.250000  0.690789      0.005000
  0.552632  0.250000  0.697368      0.005000
  0.546053  0.250000  0.703947      0.005000
  0.539474  0.250000  0.710526      0.005000
  0.532895  0.250000  0.717105      0.005000
  0.526316  0.250000  0.723684      0.005000
  0.519737  0.250000  0.730263      0.005000
  0.513158  0.250000  0.736842      0.005000
  0.506579  0.250000  0.743421      0.005000
  0.500000  0.250000  0.750000      0.005000
  0.500000  0.250000  0.750000      0.005000
  0.500000  0.263158  0.736842      0.005000
  0.500000  0.276316  0.723684      0.005000
  0.500000  0.289474  0.710526      0.005000
  0.500000  0.302632  0.697368      0.005000
  0.500000  0.315789  0.684211      0.005000
  0.500000  0.328947  0.671053      0.005000
  0.500000  0.342105  0.657895      0.005000
  0.500000  0.355263  0.644737      0.005000
  0.500000  0.368421  0.631579      0.005000
  0.500000  0.381579  0.618421      0.005000
  0.500000  0.394737  0.605263      0.005000
  0.500000  0.407895  0.592105      0.005000
  0.500000  0.421053  0.578947      0.005000
  0.500000  0.434211  0.565789      0.005000
  0.500000  0.447368  0.552632      0.005000
  0.500000  0.460526  0.539474      0.005000
  0.500000  0.473684  0.526316      0.005000
  0.500000  0.486842  0.513158      0.005000
  0.500000  0.500000  0.500000      0.005000
  0.500000  0.500000  0.500000      0.005000
  0.493421  0.493421  0.513158      0.005000
  0.486842  0.486842  0.526316      0.005000
  0.480263  0.480263  0.539474      0.005000
  0.473684  0.473684  0.552632      0.005000
  0.467105  0.467105  0.565789      0.005000
  0.460526  0.460526  0.578947      0.005000
  0.453947  0.453947  0.592105      0.005000
  0.447368  0.447368  0.605263      0.005000
  0.440789  0.440789  0.618421      0.005000
  0.434211  0.434211  0.631579      0.005000
  0.427632  0.427632  0.644737      0.005000
  0.421053  0.421053  0.657895      0.005000
  0.414474  0.414474  0.671053      0.005000
  0.407895  0.407895  0.684211      0.005000
  0.401316  0.401316  0.697368      0.005000
  0.394737  0.394737  0.710526      0.005000
  0.388158  0.388158  0.723684      0.005000
  0.381579  0.381579  0.736842      0.005000
  0.375000  0.375000  0.750000      0.005000

 Following cartesian coordinates:
            Coordinates               Weight
  0.000000  0.000000  0.000000      0.005000
  0.004811 -0.000000  0.004811      0.005000
  0.009623 -0.000000  0.009623      0.005000
  0.014434 -0.000000  0.014434      0.005000
  0.019246 -0.000000  0.019246      0.005000
  0.024057 -0.000000  0.024057      0.005000
  0.028868 -0.000000  0.028868      0.005000
  0.033680 -0.000000  0.033680      0.005000
  0.038491 -0.000000  0.038491      0.005000
  0.043303 -0.000000  0.043303      0.005000
  0.048114 -0.000000  0.048114      0.005000
  0.052925 -0.000000  0.052925      0.005000
  0.057737 -0.000000  0.057737      0.005000
  0.062548 -0.000000  0.062548      0.005000
  0.067360 -0.000000  0.067360      0.005000
  0.072171 -0.000000  0.072171      0.005000
  0.076983 -0.000000  0.076983      0.005000
  0.081794 -0.000000  0.081794      0.005000
  0.086605 -0.000000  0.086605      0.005000
  0.091417 -0.000000  0.091417      0.005000
  0.091417 -0.000000  0.091417      0.005000
  0.091417  0.002406  0.093822      0.005000
  0.091417  0.004811  0.096228      0.005000
  0.091417  0.007217  0.098634      0.005000
  0.091417  0.009623  0.101040      0.005000
  0.091417  0.012029  0.103445      0.005000
  0.091417  0.014434  0.105851      0.005000
  0.091417  0.016840  0.108257      0.005000
  0.091417  0.019246  0.110662      0.005000
  0.091417  0.021651  0.113068      0.005000
  0.091417  0.024057  0.115474      0.005000
  0.091417  0.026463  0.117879      0.005000
  0.091417  0.028868  0.120285      0.005000
  0.091417  0.031274  0.122691      0.005000
  0.091417  0.033680  0.125097      0.005000
  0.091417  0.036086  0.127502      0.005000
  0.091417  0.038491  0.129908      0.005000
  0.091417  0.040897  0.132314      0.005000
  0.091417  0.043303  0.134719      0.005000
  0.091417  0.045708  0.137125      0.005000
  0.091417  0.045708  0.137125      0.005000
  0.091417  0.048114  0.134719      0.005000
  0.091417  0.050520  0.132314      0.005000
  0.091417  0.052925  0.129908      0.005000
  0.091417  0.055331  0.127502      0.005000
  0.091417  0.057737  0.125097      0.005000
  0.091417  0.060143  0.122691      0.005000
  0.091417  0.062548  0.120285      0.005000
  0.091417  0.064954  0.117879      0.005000
  0.091417  0.067360  0.115474      0.005000
  0.091417  0.069765  0.113068      0.005000
  0.091417  0.072171  0.110662      0.005000
  0.091417  0.074577  0.108257      0.005000
  0.091417  0.076983  0.105851      0.005000
  0.091417  0.079388  0.103445      0.005000
  0.091417  0.081794  0.101040      0.005000
  0.091417  0.084200  0.098634      0.005000
  0.091417  0.086605  0.096228      0.005000
  0.091417  0.089011  0.093822      0.005000
  0.091417  0.091417  0.091417      0.005000
  0.091417  0.091417  0.091417      0.005000
  0.086605  0.086605  0.086605      0.005000
  0.081794  0.081794  0.081794      0.005000
  0.076983  0.076983  0.076983      0.005000
  0.072171  0.072171  0.072171      0.005000
  0.067360  0.067360  0.067360      0.005000
  0.062548  0.062548  0.062548      0.005000
  0.057737  0.057737  0.057737      0.005000
  0.052925  0.052925  0.052925      0.005000
  0.048114  0.048114  0.048114      0.005000
  0.043303  0.043303  0.043303      0.005000
  0.038491  0.038491  0.038491      0.005000
  0.033680  0.033680  0.033680      0.005000
  0.028868  0.028868  0.028868      0.005000
  0.024057  0.024057  0.024057      0.005000
  0.019246  0.019246  0.019246      0.005000
  0.014434  0.014434  0.014434      0.005000
  0.009623  0.009623  0.009623      0.005000
  0.004811  0.004811  0.004811      0.005000
  0.000000  0.000000  0.000000      0.005000
  0.000000  0.000000  0.000000      0.005000
  0.003609  0.003609  0.007217      0.005000
  0.007217  0.007217  0.014434      0.005000
  0.010826  0.010826  0.021651      0.005000
  0.014434  0.014434  0.028868      0.005000
  0.018043  0.018043  0.036086      0.005000
  0.021651  0.021651  0.043303      0.005000
  0.025260  0.025260  0.050520      0.005000
  0.028868  0.028868  0.057737      0.005000
  0.032477  0.032477  0.064954      0.005000
  0.036086  0.036086  0.072171      0.005000
  0.039694  0.039694  0.079388      0.005000
  0.043303  0.043303  0.086605      0.005000
  0.046911  0.046911  0.093822      0.005000
  0.050520  0.050520  0.101040      0.005000
  0.054128  0.054128  0.108257      0.005000
  0.057737  0.057737  0.115474      0.005000
  0.061345  0.061345  0.122691      0.005000
  0.064954  0.064954  0.129908      0.005000
  0.068563  0.068563  0.137125      0.005000
  0.068563  0.068563  0.137125      0.005000
  0.069765  0.064954  0.134719      0.005000
  0.070968  0.061345  0.132314      0.005000
  0.072171  0.057737  0.129908      0.005000
  0.073374  0.054128  0.127502      0.005000
  0.074577  0.050520  0.125097      0.005000
  0.075780  0.046911  0.122691      0.005000
  0.076983  0.043303  0.120285      0.005000
  0.078185  0.039694  0.117879      0.005000
  0.079388  0.036086  0.115474      0.005000
  0.080591  0.032477  0.113068      0.005000
  0.081794  0.028868  0.110662      0.005000
  0.082997  0.025260  0.108257      0.005000
  0.084200  0.021651  0.105851      0.005000
  0.085402  0.018043  0.103445      0.005000
  0.086605  0.014434  0.101040      0.005000
  0.087808  0.010826  0.098634      0.005000
  0.089011  0.007217  0.096228      0.005000
  0.090214  0.003609  0.093822      0.005000
  0.091417 -0.000000  0.091417      0.005000
  0.091417 -0.000000  0.091417      0.005000
  0.092620  0.002406  0.092620      0.005000
  0.093822  0.004811  0.093822      0.005000
  0.095025  0.007217  0.095025      0.005000
  0.096228  0.009623  0.096228      0.005000
  0.097431  0.012029  0.097431      0.005000
  0.098634  0.014434  0.098634      0.005000
  0.099837  0.016840  0.099837      0.005000
  0.101040  0.019246  0.101040      0.005000
  0.102242  0.021651  0.102242      0.005000
  0.103445  0.024057  0.103445      0.005000
  0.104648  0.026463  0.104648      0.005000
  0.105851  0.028868  0.105851      0.005000
  0.107054  0.031274  0.107054      0.005000
  0.108257  0.033680  0.108257      0.005000
  0.109460  0.036086  0.109460      0.005000
  0.110662  0.038491  0.110662      0.005000
  0.111865  0.040897  0.111865      0.005000
  0.113068  0.043303  0.113068      0.005000
  0.114271  0.045708  0.114271      0.005000
  0.114271  0.045708  0.114271      0.005000
  0.113068  0.045708  0.115474      0.005000
  0.111865  0.045708  0.116677      0.005000
  0.110662  0.045708  0.117879      0.005000
  0.109460  0.045708  0.119082      0.005000
  0.108257  0.045708  0.120285      0.005000
  0.107054  0.045708  0.121488      0.005000
  0.105851  0.045708  0.122691      0.005000
  0.104648  0.045708  0.123894      0.005000
  0.103445  0.045708  0.125097      0.005000
  0.102242  0.045708  0.126299      0.005000
  0.101040  0.045708  0.127502      0.005000
  0.099837  0.045708  0.128705      0.005000
  0.098634  0.045708  0.129908      0.005000
  0.097431  0.045708  0.131111      0.005000
  0.096228  0.045708  0.132314      0.005000
  0.095025  0.045708  0.133517      0.005000
  0.093822  0.045708  0.134719      0.005000
  0.092620  0.045708  0.135922      0.005000
  0.091417  0.045708  0.137125      0.005000
  0.091417  0.045708  0.137125      0.005000
  0.091417  0.048114  0.134719      0.005000
  0.091417  0.050520  0.132314      0.005000
  0.091417  0.052925  0.129908      0.005000
  0.091417  0.055331  0.127502      0.005000
  0.091417  0.057737  0.125097      0.005000
  0.091417  0.060143  0.122691      0.005000
  0.091417  0.062548  0.120285      0.005000
  0.091417  0.064954  0.117879      0.005000
  0.091417  0.067360  0.115474      0.005000
  0.091417  0.069765  0.113068      0.005000
  0.091417  0.072171  0.110662      0.005000
  0.091417  0.074577  0.108257      0.005000
  0.091417  0.076983  0.105851      0.005000
  0.091417  0.079388  0.103445      0.005000
  0.091417  0.081794  0.101040      0.005000
  0.091417  0.084200  0.098634      0.005000
  0.091417  0.086605  0.096228      0.005000
  0.091417  0.089011  0.093822      0.005000
  0.091417  0.091417  0.091417      0.005000
  0.091417  0.091417  0.091417      0.005000
  0.090214  0.090214  0.093822      0.005000
  0.089011  0.089011  0.096228      0.005000
  0.087808  0.087808  0.098634      0.005000
  0.086605  0.086605  0.101040      0.005000
  0.085402  0.085402  0.103445      0.005000
  0.084200  0.084200  0.105851      0.005000
  0.082997  0.082997  0.108257      0.005000
  0.081794  0.081794  0.110662      0.005000
  0.080591  0.080591  0.113068      0.005000
  0.079388  0.079388  0.115474      0.005000
  0.078185  0.078185  0.117879      0.005000
  0.076983  0.076983  0.120285      0.005000
  0.075780  0.075780  0.122691      0.005000
  0.074577  0.074577  0.125097      0.005000
  0.073374  0.073374  0.127502      0.005000
  0.072171  0.072171  0.129908      0.005000
  0.070968  0.070968  0.132314      0.005000
  0.069765  0.069765  0.134719      0.005000
  0.068563  0.068563  0.137125      0.005000
 


--------------------------------------------------------------------------------------------------------




 Dimension of arrays:
   k-points           NKPTS =    200   k-points in BZ     NKDIM =    200   number of bands    NBANDS=     32
   number of dos      NEDOS =    301   number of ions     NIONS =      8
   non local maximal  LDIM  =      4   non local SUM 2l+1 LMDIM =      8
   total plane-waves  NPLWV =  74088
   max r-space proj   IRMAX =      1   max aug-charges    IRDMAX=  15337
   dimension x,y,z NGX =    42 NGY =   42 NGZ =   42
   dimension x,y,z NGXF=    84 NGYF=   84 NGZF=   84
   support grid    NGXF=    84 NGYF=   84 NGZF=   84
   ions per type =               8
   NGX,Y,Z   is equivalent  to a cutoff of  12.77, 12.77, 12.77 a.u.
   NGXF,Y,Z  is equivalent  to a cutoff of  25.53, 25.53, 25.53 a.u.

 SYSTEM =  Si_bands                                
 POSCAR =  Si diamond Fd-3m from CIF               

 Startparameter for this run:
   NWRITE =      2    write-flag & timer
   PREC   = accura    normal or accurate (medium, high low for compatibility)
   ISTART =      1    job   : 0-new  1-cont  2-samecut
   ICHARG =     11    charge: 1-file 2-atom 10-const
   ISPIN  =      1    spin polarized calculation?
   LNONCOLLINEAR =      F non collinear calculations
   LSORBIT =      F    spin-orbit coupling
   INIWAV =      1    electr: 0-lowe 1-rand  2-diag
   LASPH  =      F    aspherical Exc in radial PAW
 Electronic Relaxation 1
   ENCUT  =  520.0 eV  38.22 Ry    6.18 a.u.  10.17 10.17 10.17*2*pi/ulx,y,z
   ENINI  =  520.0     initial cutoff
   ENAUG  =  322.1 eV  augmentation charge cutoff
   NELM   =     60;   NELMIN=  2; NELMDL=  0     # of ELM steps 
   EDIFF  = 0.1E-05   stopping-criterion for ELM
   LREAL  =      F    real-space projection
   NLSPLINE    = F    spline interpolate recip. space projectors
   LCOMPAT=      F    compatible to vasp.4.4
   GGA_COMPAT  = T    GGA compatible to vasp.4.4-vasp.4.6
   LMAXPAW     = -100 max onsite density
   LMAXMIX     =    2 max onsite mixed and CHGCAR
   VOSKOWN=      0    Vosko Wilk Nusair interpolation
   ROPT   =    0.00000
 Ionic relaxation
   EDIFFG = 0.1E-04   stopping-criterion for IOM
   NSW    =      0    number of steps for IOM
   NBLOCK =      1;   KBLOCK =      1    inner block; outer block 
   IBRION =     -1    ionic relax: 0-MD 1-quasi-New 2-CG
   NFREE  =      0    steps in history (QN), initial steepest desc. (CG)
   ISIF   =      2    stress and relaxation
   IWAVPR =     10    prediction:  0-non 1-charg 2-wave 3-comb
   ISYM   =      2    0-nonsym 1-usesym 2-fastsym
   LCORR  =      T    Harris-Foulkes like correction to forces

   POTIM  = 0.5000    time-step for ionic-motion
   TEIN   =    0.0    initial temperature
   TEBEG  =    0.0;   TEEND  =   0.0 temperature during run
   SMASS  =  -3.00    Nose mass-parameter (am)
   estimated Nose-frequenzy (Omega)   =  0.10E-29 period in steps = 0.13E+47 mass=  -0.684E-27a.u.
   SCALEE = 1.0000    scale energy and forces
   NPACO  =    256;   APACO  = 10.0  distance and # of slots for P.C.
   PSTRESS=    0.0 pullay stress

  Mass of Ions in am
   POMASS =  28.09
  Ionic Valenz
   ZVAL   =   4.00
  Atomic Wigner-Seitz radii
   RWIGS  =  -1.00
  virtual crystal weights 
   VCA    =   1.00
   NELECT =      32.0000    total number of electrons
   NUPDOWN=      -1.0000    fix difference up-down

 DOS related values:
   EMIN   =  10.00;   EMAX   =-10.00  energy-range for DOS
   EFERMI =   0.00;   METHOD = LEGACY      
   ISMEAR =     0;   SIGMA  =   0.05  broadening in eV -4-tet -1-fermi 0-gaus

 Electronic relaxation 2 (details)
   IALGO  =     38    algorithm
   LDIAG  =      T    sub-space diagonalisation (order eigenvalues)
   LSUBROT=      F    optimize rotation matrix (better conditioning)
   TURBO    =      0    0=normal 1=particle mesh
   IRESTART =      0    0=no restart 2=restart with 2 vectors
   NREBOOT  =      0    no. of reboots
   NMIN     =      0    reboot dimension
   EREF     =   0.00    reference energy to select bands
   IMIX   =      4    mixing-type and parameters
     AMIX     =   0.40;   BMIX     =  1.00
     AMIX_MAG =   1.60;   BMIX_MAG =  1.00
     AMIN     =   0.10
     WC   =   100.;   INIMIX=   1;  MIXPRE=   1;  MAXMIX= -45

 Intra band minimization:
   WEIMIN = 0.0000     energy-eigenvalue tresh-hold
   EBREAK =  0.78E-08  absolut break condition
   DEPER  =   0.30     relativ break condition  

   TIME   =   0.40     timestep for ELM

  volume/ion in A,a.u.               =      20.45       138.02
  Fermi-wavevector in a.u.,A,eV,Ry     =   0.950270  1.795751 12.286251  0.903014
  Thomas-Fermi vector in A             =   2.078632
 
 Write flags
   LWAVE        =      F    write WAVECAR
   LDOWNSAMPLE  =      F    k-point downsampling of WAVECAR
   LCHARG       =      F    write CHGCAR
   LVTOT        =      F    write LOCPOT, total local potential
   LVHAR        =      F    write LOCPOT, Hartree potential only
   LELF         =      F    write electronic localiz. function (ELF)
   LORBIT       =      0    0 simple, 1 ext, 2 COOP (PROOUT), +10 PAW based schemes


 Dipole corrections
   LMONO  =      F    monopole corrections only (constant potential shift)
   LDIPOL =      F    correct potential (dipole corrections)
   IDIPOL =      0    1-x, 2-y, 3-z, 4-all directions 
   EPSILON=  1.0000000 bulk dielectric constant

 Exchange correlation treatment:
   GGA     =    --    GGA type
   LEXCH   =     8    internal setting for exchange type
   LIBXC   =     F    Libxc                    
   VOSKOWN =     0    Vosko Wilk Nusair interpolation
   LHFCALC =     F    Hartree Fock is set to
   LHFONE  =     F    Hartree Fock one center treatment
   AEXX    =    0.0000 exact exchange contribution

 Linear response parameters
   LEPSILON=     F    determine dielectric tensor
   LRPA    =     F    only Hartree local field effects (RPA)
   LNABLA  =     F    use nabla operator in PAW spheres
   LVEL    =     F    velocity operator in full k-point grid
   CSHIFT  =0.1000    complex shift for real part using Kramers Kronig
   OMEGAMAX=  -1.0    maximum frequency
   DEG_THRESHOLD= 0.2000000E-02 threshold for treating states as degnerate
   RTIME   =   -0.100 relaxation time in fs
  (WPLASMAI=    0.000 imaginary part of plasma frequency in eV, 0.658/RTIME)
   DFIELD  = 0.0000000 0.0000000 0.0000000 field for delta impulse in time
 
  Optional k-point grid parameters
   LKPOINTS_OPT  =     F    use optional k-point grid
   KPOINTS_OPT_MODE=     1    mode for optional k-point grid
 
 Orbital magnetization related:
   ORBITALMAG=     F  switch on orbital magnetization
   LCHIMAG   =     F  perturbation theory with respect to B field
   DQ        =  0.001000  dq finite difference perturbation B field
   LLRAUG    =     F  two centre corrections for induced B field
   LBONE     =     F  B-component reconstruction in AE one-centre
   LVGVCALC  =     T  calculate vGv susceptibility
   LVGVAPPL  =     F  apply vGv susceptibility instead of pGv for G=0

 Random number generation:
   RANDOM_GENERATOR = DEFAULT
   PCG_SEED         = not used


--------------------------------------------------------------------------------------------------------


 Static calculation
 charge density and potential remain constant during run
 non-spin polarized calculation
 Variant of blocked Davidson
 Davidson routine will perform the subspace rotation
 perform sub-space diagonalisation
    after iterative eigenvector-optimisation
 no mixing
 using additional bands           16
 reciprocal scheme for non local part
 use partial core corrections
 calculate Harris-corrections to forces 
   (improved forces if not selfconsistent)
 use gradient corrections 
 WARNING: stress and forces are not correct
  (second derivative of E(xc) not defined)
 use of overlap-Matrix (Vanderbilt PP)
 Gauss-broadening in eV      SIGMA  =   0.05


--------------------------------------------------------------------------------------------------------


  energy-cutoff  :      520.00
  volume of cell :      163.62
      direct lattice vectors                 reciprocal lattice vectors
     5.469457568  0.000000000  0.000000000     0.182833487 -0.000000000  0.000000000
     0.000000000  5.469457568  0.000000000     0.000000000  0.182833487  0.000000000
     0.000000000  0.000000000  5.469457568    -0.000000000 -0.000000000  0.182833487

  length of vectors
     5.469457568  5.469457568  5.469457568     0.182833487  0.182833487  0.182833487


 
 old parameters found on file WAVECAR:
  energy-cutoff  :      520.00
  volume of cell :      163.62
      direct lattice vectors                 reciprocal lattice vectors
     5.469457568  0.000000000  0.000000000     0.182833487 -0.000000000  0.000000000
     0.000000000  5.469457568  0.000000000     0.000000000  0.182833487  0.000000000
     0.000000000  0.000000000  5.469457568    -0.000000000 -0.000000000  0.182833487

  length of vectors

 
 k-points in units of 2pi/SCALE and weight: Si band structure - FCC k-path          
   0.00000000  0.00000000  0.00000000       0.005
   0.00481141 -0.00000000  0.00481141       0.005
   0.00962282 -0.00000000  0.00962282       0.005
   0.01443422 -0.00000000  0.01443422       0.005
   0.01924563 -0.00000000  0.01924563       0.005
   0.02405704 -0.00000000  0.02405704       0.005
   0.02886845 -0.00000000  0.02886845       0.005
   0.03367985 -0.00000000  0.03367985       0.005
   0.03849126 -0.00000000  0.03849126       0.005
   0.04330267 -0.00000000  0.04330267       0.005
   0.04811408 -0.00000000  0.04811408       0.005
   0.05292548 -0.00000000  0.05292548       0.005
   0.05773689 -0.00000000  0.05773689       0.005
   0.06254830 -0.00000000  0.06254830       0.005
   0.06735971 -0.00000000  0.06735971       0.005
   0.07217111 -0.00000000  0.07217111       0.005
   0.07698252 -0.00000000  0.07698252       0.005
   0.08179393 -0.00000000  0.08179393       0.005
   0.08660534 -0.00000000  0.08660534       0.005
   0.09141674 -0.00000000  0.09141674       0.005
   0.09141674 -0.00000000  0.09141674       0.005
   0.09141674  0.00240570  0.09382245       0.005
   0.09141674  0.00481141  0.09622815       0.005
   0.09141674  0.00721711  0.09863385       0.005
   0.09141674  0.00962282  0.10103956       0.005
   0.09141674  0.01202852  0.10344526       0.005
   0.09141674  0.01443422  0.10585097       0.005
   0.09141674  0.01683993  0.10825667       0.005
   0.09141674  0.01924563  0.11066237       0.005
   0.09141674  0.02165133  0.11306808       0.005
   0.09141674  0.02405704  0.11547378       0.005
   0.09141674  0.02646274  0.11787949       0.005
   0.09141674  0.02886845  0.12028519       0.005
   0.09141674  0.03127415  0.12269089       0.005
   0.09141674  0.03367985  0.12509660       0.005
   0.09141674  0.03608556  0.12750230       0.005
   0.09141674  0.03849126  0.12990800       0.005
   0.09141674  0.04089696  0.13231371       0.005
   0.09141674  0.04330267  0.13471941       0.005
   0.09141674  0.04570837  0.13712512       0.005
   0.09141674  0.04570837  0.13712512       0.005
   0.09141674  0.04811408  0.13471941       0.005
   0.09141674  0.05051978  0.13231371       0.005
   0.09141674  0.05292548  0.12990800       0.005
   0.09141674  0.05533119  0.12750230       0.005
   0.09141674  0.05773689  0.12509660       0.005
   0.09141674  0.06014259  0.12269089       0.005
   0.09141674  0.06254830  0.12028519       0.005
   0.09141674  0.06495400  0.11787949       0.005
   0.09141674  0.06735971  0.11547378       0.005
   0.09141674  0.06976541  0.11306808       0.005
   0.09141674  0.07217111  0.11066237       0.005
   0.09141674  0.07457682  0.10825667       0.005
   0.09141674  0.07698252  0.10585097       0.005
   0.09141674  0.07938822  0.10344526       0.005
   0.09141674  0.08179393  0.10103956       0.005
   0.09141674  0.08419963  0.09863385       0.005
   0.09141674  0.08660534  0.09622815       0.005
   0.09141674  0.08901104  0.09382245       0.005
   0.09141674  0.09141674  0.09141674       0.005
   0.09141674  0.09141674  0.09141674       0.005
   0.08660534  0.08660534  0.08660534       0.005
   0.08179393  0.08179393  0.08179393       0.005
   0.07698252  0.07698252  0.07698252       0.005
   0.07217111  0.07217111  0.07217111       0.005
   0.06735971  0.06735971  0.06735971       0.005
   0.06254830  0.06254830  0.06254830       0.005
   0.05773689  0.05773689  0.05773689       0.005
   0.05292548  0.05292548  0.05292548       0.005
   0.04811408  0.04811408  0.04811408       0.005
   0.04330267  0.04330267  0.04330267       0.005
   0.03849126  0.03849126  0.03849126       0.005
   0.03367985  0.03367985  0.03367985       0.005
   0.02886845  0.02886845  0.02886845       0.005
   0.02405704  0.02405704  0.02405704       0.005
   0.01924563  0.01924563  0.01924563       0.005
   0.01443422  0.01443422  0.01443422       0.005
   0.00962282  0.00962282  0.00962282       0.005
   0.00481141  0.00481141  0.00481141       0.005
   0.00000000  0.00000000  0.00000000       0.005
   0.00000000  0.00000000  0.00000000       0.005
   0.00360856  0.00360856  0.00721711       0.005
   0.00721711  0.00721711  0.01443422       0.005
   0.01082567  0.01082567  0.02165133       0.005
   0.01443422  0.01443422  0.02886845       0.005
   0.01804278  0.01804278  0.03608556       0.005
   0.02165133  0.02165133  0.04330267       0.005
   0.02525989  0.02525989  0.05051978       0.005
   0.02886845  0.02886845  0.05773689       0.005
   0.03247700  0.03247700  0.06495400       0.005
   0.03608556  0.03608556  0.07217111       0.005
   0.03969411  0.03969411  0.07938822       0.005
   0.04330267  0.04330267  0.08660534       0.005
   0.04691122  0.04691122  0.09382245       0.005
   0.05051978  0.05051978  0.10103956       0.005
   0.05412834  0.05412834  0.10825667       0.005
   0.05773689  0.05773689  0.11547378       0.005
   0.06134545  0.06134545  0.12269089       0.005
   0.06495400  0.06495400  0.12990800       0.005
   0.06856256  0.06856256  0.13712512       0.005
   0.06856256  0.06856256  0.13712512       0.005
   0.06976541  0.06495400  0.13471941       0.005
   0.07096826  0.06134545  0.13231371       0.005
   0.07217111  0.05773689  0.12990800       0.005
   0.07337397  0.05412834  0.12750230       0.005
   0.07457682  0.05051978  0.12509660       0.005
   0.07577967  0.04691122  0.12269089       0.005
   0.07698252  0.04330267  0.12028519       0.005
   0.07818537  0.03969411  0.11787949       0.005
   0.07938822  0.03608556  0.11547378       0.005
   0.08059108  0.03247700  0.11306808       0.005
   0.08179393  0.02886845  0.11066237       0.005
   0.08299678  0.02525989  0.10825667       0.005
   0.08419963  0.02165133  0.10585097       0.005
   0.08540248  0.01804278  0.10344526       0.005
   0.08660534  0.01443422  0.10103956       0.005
   0.08780819  0.01082567  0.09863385       0.005
   0.08901104  0.00721711  0.09622815       0.005
   0.09021389  0.00360856  0.09382245       0.005
   0.09141674 -0.00000000  0.09141674       0.005
   0.09141674 -0.00000000  0.09141674       0.005
   0.09261960  0.00240570  0.09261960       0.005
   0.09382245  0.00481141  0.09382245       0.005
   0.09502530  0.00721711  0.09502530       0.005
   0.09622815  0.00962282  0.09622815       0.005
   0.09743100  0.01202852  0.09743100       0.005
   0.09863385  0.01443422  0.09863385       0.005
   0.09983671  0.01683993  0.09983671       0.005
   0.10103956  0.01924563  0.10103956       0.005
   0.10224241  0.02165133  0.10224241       0.005
   0.10344526  0.02405704  0.10344526       0.005
   0.10464811  0.02646274  0.10464811       0.005
   0.10585097  0.02886845  0.10585097       0.005
   0.10705382  0.03127415  0.10705382       0.005
   0.10825667  0.03367985  0.10825667       0.005
   0.10945952  0.03608556  0.10945952       0.005
   0.11066237  0.03849126  0.11066237       0.005
   0.11186523  0.04089696  0.11186523       0.005
   0.11306808  0.04330267  0.11306808       0.005
   0.11427093  0.04570837  0.11427093       0.005
   0.11427093  0.04570837  0.11427093       0.005
   0.11306808  0.04570837  0.11547378       0.005
   0.11186523  0.04570837  0.11667663       0.005
   0.11066237  0.04570837  0.11787949       0.005
   0.10945952  0.04570837  0.11908234       0.005
   0.10825667  0.04570837  0.12028519       0.005
   0.10705382  0.04570837  0.12148804       0.005
   0.10585097  0.04570837  0.12269089       0.005
   0.10464811  0.04570837  0.12389374       0.005
   0.10344526  0.04570837  0.12509660       0.005
   0.10224241  0.04570837  0.12629945       0.005
   0.10103956  0.04570837  0.12750230       0.005
   0.09983671  0.04570837  0.12870515       0.005
   0.09863385  0.04570837  0.12990800       0.005
   0.09743100  0.04570837  0.13111086       0.005
   0.09622815  0.04570837  0.13231371       0.005
   0.09502530  0.04570837  0.13351656       0.005
   0.09382245  0.04570837  0.13471941       0.005
   0.09261960  0.04570837  0.13592226       0.005
   0.09141674  0.04570837  0.13712512       0.005
   0.09141674  0.04570837  0.13712512       0.005
   0.09141674  0.04811408  0.13471941       0.005
   0.09141674  0.05051978  0.13231371       0.005
   0.09141674  0.05292548  0.12990800       0.005
   0.09141674  0.05533119  0.12750230       0.005
   0.09141674  0.05773689  0.12509660       0.005
   0.09141674  0.06014259  0.12269089       0.005
   0.09141674  0.06254830  0.12028519       0.005
   0.09141674  0.06495400  0.11787949       0.005
   0.09141674  0.06735971  0.11547378       0.005
   0.09141674  0.06976541  0.11306808       0.005
   0.09141674  0.07217111  0.11066237       0.005
   0.09141674  0.07457682  0.10825667       0.005
   0.09141674  0.07698252  0.10585097       0.005
   0.09141674  0.07938822  0.10344526       0.005
   0.09141674  0.08179393  0.10103956       0.005
   0.09141674  0.08419963  0.09863385       0.005
   0.09141674  0.08660534  0.09622815       0.005
   0.09141674  0.08901104  0.09382245       0.005
   0.09141674  0.09141674  0.09141674       0.005
   0.09141674  0.09141674  0.09141674       0.005
   0.09021389  0.09021389  0.09382245       0.005
   0.08901104  0.08901104  0.09622815       0.005
   0.08780819  0.08780819  0.09863385       0.005
   0.08660534  0.08660534  0.10103956       0.005
   0.08540248  0.08540248  0.10344526       0.005
   0.08419963  0.08419963  0.10585097       0.005
   0.08299678  0.08299678  0.10825667       0.005
   0.08179393  0.08179393  0.11066237       0.005
   0.08059108  0.08059108  0.11306808       0.005
   0.07938822  0.07938822  0.11547378       0.005
   0.07818537  0.07818537  0.11787949       0.005
   0.07698252  0.07698252  0.12028519       0.005
   0.07577967  0.07577967  0.12269089       0.005
   0.07457682  0.07457682  0.12509660       0.005
   0.07337397  0.07337397  0.12750230       0.005
   0.07217111  0.07217111  0.12990800       0.005
   0.07096826  0.07096826  0.13231371       0.005
   0.06976541  0.06976541  0.13471941       0.005
   0.06856256  0.06856256  0.13712512       0.005
 
 k-points in reciprocal lattice and weights: Si band structure - FCC k-path          
   0.00000000  0.00000000  0.00000000       0.005
   0.02631579  0.00000000  0.02631579       0.005
   0.05263158  0.00000000  0.05263158       0.005
   0.07894737  0.00000000  0.07894737       0.005
   0.10526316  0.00000000  0.10526316       0.005
   0.13157895  0.00000000  0.13157895       0.005
   0.15789474  0.00000000  0.15789474       0.005
   0.18421053  0.00000000  0.18421053       0.005
   0.21052632  0.00000000  0.21052632       0.005
   0.23684211  0.00000000  0.23684211       0.005
   0.26315789  0.00000000  0.26315789       0.005
   0.28947368  0.00000000  0.28947368       0.005
   0.31578947  0.00000000  0.31578947       0.005
   0.34210526  0.00000000  0.34210526       0.005
   0.36842105  0.00000000  0.36842105       0.005
   0.39473684  0.00000000  0.39473684       0.005
   0.42105263  0.00000000  0.42105263       0.005
   0.44736842  0.00000000  0.44736842       0.005
   0.47368421  0.00000000  0.47368421       0.005
   0.50000000  0.00000000  0.50000000       0.005
   0.50000000  0.00000000  0.50000000       0.005
   0.50000000  0.01315789  0.51315789       0.005
   0.50000000  0.02631579  0.52631579       0.005
   0.50000000  0.03947368  0.53947368       0.005
   0.50000000  0.05263158  0.55263158       0.005
   0.50000000  0.06578947  0.56578947       0.005
   0.50000000  0.07894737  0.57894737       0.005
   0.50000000  0.09210526  0.59210526       0.005
   0.50000000  0.10526316  0.60526316       0.005
   0.50000000  0.11842105  0.61842105       0.005
   0.50000000  0.13157895  0.63157895       0.005
   0.50000000  0.14473684  0.64473684       0.005
   0.50000000  0.15789474  0.65789474       0.005
   0.50000000  0.17105263  0.67105263       0.005
   0.50000000  0.18421053  0.68421053       0.005
   0.50000000  0.19736842  0.69736842       0.005
   0.50000000  0.21052632  0.71052632       0.005
   0.50000000  0.22368421  0.72368421       0.005
   0.50000000  0.23684211  0.73684211       0.005
   0.50000000  0.25000000  0.75000000       0.005
   0.50000000  0.25000000  0.75000000       0.005
   0.50000000  0.26315789  0.73684211       0.005
   0.50000000  0.27631579  0.72368421       0.005
   0.50000000  0.28947368  0.71052632       0.005
   0.50000000  0.30263158  0.69736842       0.005
   0.50000000  0.31578947  0.68421053       0.005
   0.50000000  0.32894737  0.67105263       0.005
   0.50000000  0.34210526  0.65789474       0.005
   0.50000000  0.35526316  0.64473684       0.005
   0.50000000  0.36842105  0.63157895       0.005
   0.50000000  0.38157895  0.61842105       0.005
   0.50000000  0.39473684  0.60526316       0.005
   0.50000000  0.40789474  0.59210526       0.005
   0.50000000  0.42105263  0.57894737       0.005
   0.50000000  0.43421053  0.56578947       0.005
   0.50000000  0.44736842  0.55263158       0.005
   0.50000000  0.46052632  0.53947368       0.005
   0.50000000  0.47368421  0.52631579       0.005
   0.50000000  0.48684211  0.51315789       0.005
   0.50000000  0.50000000  0.50000000       0.005
   0.50000000  0.50000000  0.50000000       0.005
   0.47368421  0.47368421  0.47368421       0.005
   0.44736842  0.44736842  0.44736842       0.005
   0.42105263  0.42105263  0.42105263       0.005
   0.39473684  0.39473684  0.39473684       0.005
   0.36842105  0.36842105  0.36842105       0.005
   0.34210526  0.34210526  0.34210526       0.005
   0.31578947  0.31578947  0.31578947       0.005
   0.28947368  0.28947368  0.28947368       0.005
   0.26315789  0.26315789  0.26315789       0.005
   0.23684211  0.23684211  0.23684211       0.005
   0.21052632  0.21052632  0.21052632       0.005
   0.18421053  0.18421053  0.18421053       0.005
   0.15789474  0.15789474  0.15789474       0.005
   0.13157895  0.13157895  0.13157895       0.005
   0.10526316  0.10526316  0.10526316       0.005
   0.07894737  0.07894737  0.07894737       0.005
   0.05263158  0.05263158  0.05263158       0.005
   0.02631579  0.02631579  0.02631579       0.005
   0.00000000  0.00000000  0.00000000       0.005
   0.00000000  0.00000000  0.00000000       0.005
   0.01973684  0.01973684  0.03947368       0.005
   0.03947368  0.03947368  0.07894737       0.005
   0.05921053  0.05921053  0.11842105       0.005
   0.07894737  0.07894737  0.15789474       0.005
   0.09868421  0.09868421  0.19736842       0.005
   0.11842105  0.11842105  0.23684211       0.005
   0.13815789  0.13815789  0.27631579       0.005
   0.15789474  0.15789474  0.31578947       0.005
   0.17763158  0.17763158  0.35526316       0.005
   0.19736842  0.19736842  0.39473684       0.005
   0.21710526  0.21710526  0.43421053       0.005
   0.23684211  0.23684211  0.47368421       0.005
   0.25657895  0.25657895  0.51315789       0.005
   0.27631579  0.27631579  0.55263158       0.005
   0.29605263  0.29605263  0.59210526       0.005
   0.31578947  0.31578947  0.63157895       0.005
   0.33552632  0.33552632  0.67105263       0.005
   0.35526316  0.35526316  0.71052632       0.005
   0.37500000  0.37500000  0.75000000       0.005
   0.37500000  0.37500000  0.75000000       0.005
   0.38157895  0.35526316  0.73684211       0.005
   0.38815789  0.33552632  0.72368421       0.005
   0.39473684  0.31578947  0.71052632       0.005
   0.40131579  0.29605263  0.69736842       0.005
   0.40789474  0.27631579  0.68421053       0.005
   0.41447368  0.25657895  0.67105263       0.005
   0.42105263  0.23684211  0.65789474       0.005
   0.42763158  0.21710526  0.64473684       0.005
   0.43421053  0.19736842  0.63157895       0.005
   0.44078947  0.17763158  0.61842105       0.005
   0.44736842  0.15789474  0.60526316       0.005
   0.45394737  0.13815789  0.59210526       0.005
   0.46052632  0.11842105  0.57894737       0.005
   0.46710526  0.09868421  0.56578947       0.005
   0.47368421  0.07894737  0.55263158       0.005
   0.48026316  0.05921053  0.53947368       0.005
   0.48684211  0.03947368  0.52631579       0.005
   0.49342105  0.01973684  0.51315789       0.005
   0.50000000  0.00000000  0.50000000       0.005
   0.50000000  0.00000000  0.50000000       0.005
   0.50657895  0.01315789  0.50657895       0.005
   0.51315789  0.02631579  0.51315789       0.005
   0.51973684  0.03947368  0.51973684       0.005
   0.52631579  0.05263158  0.52631579       0.005
   0.53289474  0.06578947  0.53289474       0.005
   0.53947368  0.07894737  0.53947368       0.005
   0.54605263  0.09210526  0.54605263       0.005
   0.55263158  0.10526316  0.55263158       0.005
   0.55921053  0.11842105  0.55921053       0.005
   0.56578947  0.13157895  0.56578947       0.005
   0.57236842  0.14473684  0.57236842       0.005
   0.57894737  0.15789474  0.57894737       0.005
   0.58552632  0.17105263  0.58552632       0.005
   0.59210526  0.18421053  0.59210526       0.005
   0.59868421  0.19736842  0.59868421       0.005
   0.60526316  0.21052632  0.60526316       0.005
   0.61184211  0.22368421  0.61184211       0.005
   0.61842105  0.23684211  0.61842105       0.005
   0.62500000  0.25000000  0.62500000       0.005
   0.62500000  0.25000000  0.62500000       0.005
   0.61842105  0.25000000  0.63157895       0.005
   0.61184211  0.25000000  0.63815789       0.005
   0.60526316  0.25000000  0.64473684       0.005
   0.59868421  0.25000000  0.65131579       0.005
   0.59210526  0.25000000  0.65789474       0.005
   0.58552632  0.25000000  0.66447368       0.005
   0.57894737  0.25000000  0.67105263       0.005
   0.57236842  0.25000000  0.67763158       0.005
   0.56578947  0.25000000  0.68421053       0.005
   0.55921053  0.25000000  0.69078947       0.005
   0.55263158  0.25000000  0.69736842       0.005
   0.54605263  0.25000000  0.70394737       0.005
   0.53947368  0.25000000  0.71052632       0.005
   0.53289474  0.25000000  0.71710526       0.005
   0.52631579  0.25000000  0.72368421       0.005
   0.51973684  0.25000000  0.73026316       0.005
   0.51315789  0.25000000  0.73684211       0.005
   0.50657895  0.25000000  0.74342105       0.005
   0.50000000  0.25000000  0.75000000       0.005
   0.50000000  0.25000000  0.75000000       0.005
   0.50000000  0.26315789  0.73684211       0.005
   0.50000000  0.27631579  0.72368421       0.005
   0.50000000  0.28947368  0.71052632       0.005
   0.50000000  0.30263158  0.69736842       0.005
   0.50000000  0.31578947  0.68421053       0.005
   0.50000000  0.32894737  0.67105263       0.005
   0.50000000  0.34210526  0.65789474       0.005
   0.50000000  0.35526316  0.64473684       0.005
   0.50000000  0.36842105  0.63157895       0.005
   0.50000000  0.38157895  0.61842105       0.005
   0.50000000  0.39473684  0.60526316       0.005
   0.50000000  0.40789474  0.59210526       0.005
   0.50000000  0.42105263  0.57894737       0.005
   0.50000000  0.43421053  0.56578947       0.005
   0.50000000  0.44736842  0.55263158       0.005
   0.50000000  0.46052632  0.53947368       0.005
   0.50000000  0.47368421  0.52631579       0.005
   0.50000000  0.48684211  0.51315789       0.005
   0.50000000  0.50000000  0.50000000       0.005
   0.50000000  0.50000000  0.50000000       0.005
   0.49342105  0.49342105  0.51315789       0.005
   0.48684211  0.48684211  0.52631579       0.005
   0.48026316  0.48026316  0.53947368       0.005
   0.47368421  0.47368421  0.55263158       0.005
   0.46710526  0.46710526  0.56578947       0.005
   0.46052632  0.46052632  0.57894737       0.005
   0.45394737  0.45394737  0.59210526       0.005
   0.44736842  0.44736842  0.60526316       0.005
   0.44078947  0.44078947  0.61842105       0.005
   0.43421053  0.43421053  0.63157895       0.005
   0.42763158  0.42763158  0.64473684       0.005
   0.42105263  0.42105263  0.65789474       0.005
   0.41447368  0.41447368  0.67105263       0.005
   0.40789474  0.40789474  0.68421053       0.005
   0.40131579  0.40131579  0.69736842       0.005
   0.39473684  0.39473684  0.71052632       0.005
   0.38815789  0.38815789  0.72368421       0.005
   0.38157895  0.38157895  0.73684211       0.005
   0.37500000  0.37500000  0.75000000       0.005
 
 position of ions in fractional coordinates (direct lattice) 
   0.00000000  0.00000000  0.00000000
   0.00000000  0.50000000  0.50000000
   0.50000000  0.50000000  0.00000000
   0.50000000  0.00000000  0.50000000
   0.75000000  0.25000000  0.75000000
   0.25000000  0.25000000  0.25000000
   0.25000000  0.75000000  0.75000000
   0.75000000  0.75000000  0.25000000
 
 position of ions in cartesian coordinates  (Angst):
   0.00000000  0.00000000  0.00000000
   0.00000000  2.73472878  2.73472878
   2.73472878  2.73472878  0.00000000
   2.73472878  0.00000000  2.73472878
   4.10209318  1.36736439  4.10209318
   1.36736439  1.36736439  1.36736439
   1.36736439  4.10209318  4.10209318
   4.10209318  4.10209318  1.36736439
 


--------------------------------------------------------------------------------------------------------


 k-point   1 :   0.0000 0.0000 0.0000  plane waves:    4385
 k-point   2 :   0.0263 0.0000 0.0263  plane waves:    4391
 k-point   3 :   0.0526 0.0000 0.0526  plane waves:    4407
 k-point   4 :   0.0789 0.0000 0.0789  plane waves:    4415
 k-point   5 :   0.1053 0.0000 0.1053  plane waves:    4421
 k-point   6 :   0.1316 0.0000 0.1316  plane waves:    4411
 k-point   7 :   0.1579 0.0000 0.1579  plane waves:    4411
 k-point   8 :   0.1842 0.0000 0.1842  plane waves:    4397
 k-point   9 :   0.2105 0.0000 0.2105  plane waves:    4398
 k-point  10 :   0.2368 0.0000 0.2368  plane waves:    4398
 k-point  11 :   0.2632 0.0000 0.2632  plane waves:    4406
 k-point  12 :   0.2895 0.0000 0.2895  plane waves:    4406
 k-point  13 :   0.3158 0.0000 0.3158  plane waves:    4428
 k-point  14 :   0.3421 0.0000 0.3421  plane waves:    4426
 k-point  15 :   0.3684 0.0000 0.3684  plane waves:    4406
 k-point  16 :   0.3947 0.0000 0.3947  plane waves:    4412
 k-point  17 :   0.4211 0.0000 0.4211  plane waves:    4416
 k-point  18 :   0.4474 0.0000 0.4474  plane waves:    4420
 k-point  19 :   0.4737 0.0000 0.4737  plane waves:    4428
 k-point  20 :   0.5000 0.0000 0.5000  plane waves:    4388
 k-point  21 :   0.5000 0.0000 0.5000  plane waves:    4388
 k-point  22 :   0.5000 0.0132 0.5132  plane waves:    4422
 k-point  23 :   0.5000 0.0263 0.5263  plane waves:    4426
 k-point  24 :   0.5000 0.0395 0.5395  plane waves:    4426
 k-point  25 :   0.5000 0.0526 0.5526  plane waves:    4418
 k-point  26 :   0.5000 0.0658 0.5658  plane waves:    4416
 k-point  27 :   0.5000 0.0789 0.5789  plane waves:    4412
 k-point  28 :   0.5000 0.0921 0.5921  plane waves:    4410
 k-point  29 :   0.5000 0.1053 0.6053  plane waves:    4406
 k-point  30 :   0.5000 0.1184 0.6184  plane waves:    4406
 k-point  31 :   0.5000 0.1316 0.6316  plane waves:    4400
 k-point  32 :   0.5000 0.1447 0.6447  plane waves:    4398
 k-point  33 :   0.5000 0.1579 0.6579  plane waves:    4396
 k-point  34 :   0.5000 0.1711 0.6711  plane waves:    4398
 k-point  35 :   0.5000 0.1842 0.6842  plane waves:    4402
 k-point  36 :   0.5000 0.1974 0.6974  plane waves:    4404
 k-point  37 :   0.5000 0.2105 0.7105  plane waves:    4408
 k-point  38 :   0.5000 0.2237 0.7237  plane waves:    4414
 k-point  39 :   0.5000 0.2368 0.7368  plane waves:    4416
 k-point  40 :   0.5000 0.2500 0.7500  plane waves:    4426
 k-point  41 :   0.5000 0.2500 0.7500  plane waves:    4426
 k-point  42 :   0.5000 0.2632 0.7368  plane waves:    4418
 k-point  43 :   0.5000 0.2763 0.7237  plane waves:    4414
 k-point  44 :   0.5000 0.2895 0.7105  plane waves:    4418
 k-point  45 :   0.5000 0.3026 0.6974  plane waves:    4426
 k-point  46 :   0.5000 0.3158 0.6842  plane waves:    4426
 k-point  47 :   0.5000 0.3289 0.6711  plane waves:    4422
 k-point  48 :   0.5000 0.3421 0.6579  plane waves:    4426
 k-point  49 :   0.5000 0.3553 0.6447  plane waves:    4430
 k-point  50 :   0.5000 0.3684 0.6316  plane waves:    4414
 k-point  51 :   0.5000 0.3816 0.6184  plane waves:    4410
 k-point  52 :   0.5000 0.3947 0.6053  plane waves:    4414
 k-point  53 :   0.5000 0.4079 0.5921  plane waves:    4410
 k-point  54 :   0.5000 0.4211 0.5789  plane waves:    4406
 k-point  55 :   0.5000 0.4342 0.5658  plane waves:    4400
 k-point  56 :   0.5000 0.4474 0.5526  plane waves:    4396
 k-point  57 :   0.5000 0.4605 0.5395  plane waves:    4386
 k-point  58 :   0.5000 0.4737 0.5263  plane waves:    4408
 k-point  59 :   0.5000 0.4868 0.5132  plane waves:    4416
 k-point  60 :   0.5000 0.5000 0.5000  plane waves:    4416
 k-point  61 :   0.5000 0.5000 0.5000  plane waves:    4416
 k-point  62 :   0.4737 0.4737 0.4737  plane waves:    4392
 k-point  63 :   0.4474 0.4474 0.4474  plane waves:    4395
 k-point  64 :   0.4211 0.4211 0.4211  plane waves:    4407
 k-point  65 :   0.3947 0.3947 0.3947  plane waves:    4416
 k-point  66 :   0.3684 0.3684 0.3684  plane waves:    4404
 k-point  67 :   0.3421 0.3421 0.3421  plane waves:    4410
 k-point  68 :   0.3158 0.3158 0.3158  plane waves:    4404
 k-point  69 :   0.2895 0.2895 0.2895  plane waves:    4410
 k-point  70 :   0.2632 0.2632 0.2632  plane waves:    4401
 k-point  71 :   0.2368 0.2368 0.2368  plane waves:    4395
 k-point  72 :   0.2105 0.2105 0.2105  plane waves:    4410
 k-point  73 :   0.1842 0.1842 0.1842  plane waves:    4410
 k-point  74 :   0.1579 0.1579 0.1579  plane waves:    4410
 k-point  75 :   0.1316 0.1316 0.1316  plane waves:    4404
 k-point  76 :   0.1053 0.1053 0.1053  plane waves:    4415
 k-point  77 :   0.0789 0.0789 0.0789  plane waves:    4412
 k-point  78 :   0.0526 0.0526 0.0526  plane waves:    4412
 k-point  79 :   0.0263 0.0263 0.0263  plane waves:    4403
 k-point  80 :   0.0000 0.0000 0.0000  plane waves:    4385
 k-point  81 :   0.0000 0.0000 0.0000  plane waves:    4385
 k-point  82 :   0.0197 0.0197 0.0395  plane waves:    4399
 k-point  83 :   0.0395 0.0395 0.0789  plane waves:    4412
 k-point  84 :   0.0592 0.0592 0.1184  plane waves:    4418
 k-point  85 :   0.0789 0.0789 0.1579  plane waves:    4411
 k-point  86 :   0.0987 0.0987 0.1974  plane waves:    4407
 k-point  87 :   0.1184 0.1184 0.2368  plane waves:    4405
 k-point  88 :   0.1382 0.1382 0.2763  plane waves:    4394
 k-point  89 :   0.1579 0.1579 0.3158  plane waves:    4403
 k-point  90 :   0.1776 0.1776 0.3553  plane waves:    4395
 k-point  91 :   0.1974 0.1974 0.3947  plane waves:    4399
 k-point  92 :   0.2171 0.2171 0.4342  plane waves:    4406
 k-point  93 :   0.2368 0.2368 0.4737  plane waves:    4418
 k-point  94 :   0.2566 0.2566 0.5132  plane waves:    4416
 k-point  95 :   0.2763 0.2763 0.5526  plane waves:    4414
 k-point  96 :   0.2961 0.2961 0.5921  plane waves:    4413
 k-point  97 :   0.3158 0.3158 0.6316  plane waves:    4406
 k-point  98 :   0.3355 0.3355 0.6711  plane waves:    4406
 k-point  99 :   0.3553 0.3553 0.7105  plane waves:    4409
 k-point 100 :   0.3750 0.3750 0.7500  plane waves:    4420
 k-point 101 :   0.3750 0.3750 0.7500  plane waves:    4420
 k-point 102 :   0.3816 0.3553 0.7368  plane waves:    4412
 k-point 103 :   0.3882 0.3355 0.7237  plane waves:    4414
 k-point 104 :   0.3947 0.3158 0.7105  plane waves:    4410
 k-point 105 :   0.4013 0.2961 0.6974  plane waves:    4414
 k-point 106 :   0.4079 0.2763 0.6842  plane waves:    4413
 k-point 107 :   0.4145 0.2566 0.6711  plane waves:    4413
 k-point 108 :   0.4211 0.2368 0.6579  plane waves:    4414
 k-point 109 :   0.4276 0.2171 0.6447  plane waves:    4407
 k-point 110 :   0.4342 0.1974 0.6316  plane waves:    4409
 k-point 111 :   0.4408 0.1776 0.6184  plane waves:    4406
 k-point 112 :   0.4474 0.1579 0.6053  plane waves:    4406
 k-point 113 :   0.4539 0.1382 0.5921  plane waves:    4408
 k-point 114 :   0.4605 0.1184 0.5789  plane waves:    4408
 k-point 115 :   0.4671 0.0987 0.5658  plane waves:    4410
 k-point 116 :   0.4737 0.0789 0.5526  plane waves:    4416
 k-point 117 :   0.4803 0.0592 0.5395  plane waves:    4420
 k-point 118 :   0.4868 0.0395 0.5263  plane waves:    4424
 k-point 119 :   0.4934 0.0197 0.5132  plane waves:    4420
 k-point 120 :   0.5000 0.0000 0.5000  plane waves:    4388
 k-point 121 :   0.5000 0.0000 0.5000  plane waves:    4388
 k-point 122 :   0.5066 0.0132 0.5066  plane waves:    4416
 k-point 123 :   0.5132 0.0263 0.5132  plane waves:    4424
 k-point 124 :   0.5197 0.0395 0.5197  plane waves:    4424
 k-point 125 :   0.5263 0.0526 0.5263  plane waves:    4416
 k-point 126 :   0.5329 0.0658 0.5329  plane waves:    4417
 k-point 127 :   0.5395 0.0789 0.5395  plane waves:    4419
 k-point 128 :   0.5461 0.0921 0.5461  plane waves:    4410
 k-point 129 :   0.5526 0.1053 0.5526  plane waves:    4416
 k-point 130 :   0.5592 0.1184 0.5592  plane waves:    4418
 k-point 131 :   0.5658 0.1316 0.5658  plane waves:    4418
 k-point 132 :   0.5724 0.1447 0.5724  plane waves:    4418
 k-point 133 :   0.5789 0.1579 0.5789  plane waves:    4407
 k-point 134 :   0.5855 0.1711 0.5855  plane waves:    4408
 k-point 135 :   0.5921 0.1842 0.5921  plane waves:    4418
 k-point 136 :   0.5987 0.1974 0.5987  plane waves:    4415
 k-point 137 :   0.6053 0.2105 0.6053  plane waves:    4419
 k-point 138 :   0.6118 0.2237 0.6118  plane waves:    4417
 k-point 139 :   0.6184 0.2368 0.6184  plane waves:    4415
 k-point 140 :   0.6250 0.2500 0.6250  plane waves:    4420
 k-point 141 :   0.6250 0.2500 0.6250  plane waves:    4420
 k-point 142 :   0.6184 0.2500 0.6316  plane waves:    4410
 k-point 143 :   0.6118 0.2500 0.6382  plane waves:    4409
 k-point 144 :   0.6053 0.2500 0.6447  plane waves:    4411
 k-point 145 :   0.5987 0.2500 0.6513  plane waves:    4416
 k-point 146 :   0.5921 0.2500 0.6579  plane waves:    4415
 k-point 147 :   0.5855 0.2500 0.6645  plane waves:    4413
 k-point 148 :   0.5789 0.2500 0.6711  plane waves:    4412
 k-point 149 :   0.5724 0.2500 0.6776  plane waves:    4416
 k-point 150 :   0.5658 0.2500 0.6842  plane waves:    4414
 k-point 151 :   0.5592 0.2500 0.6908  plane waves:    4414
 k-point 152 :   0.5526 0.2500 0.6974  plane waves:    4414
 k-point 153 :   0.5461 0.2500 0.7039  plane waves:    4413
 k-point 154 :   0.5395 0.2500 0.7105  plane waves:    4418
 k-point 155 :   0.5329 0.2500 0.7171  plane waves:    4413
 k-point 156 :   0.5263 0.2500 0.7237  plane waves:    4414
 k-point 157 :   0.5197 0.2500 0.7303  plane waves:    4418
 k-point 158 :   0.5132 0.2500 0.7368  plane waves:    4417
 k-point 159 :   0.5066 0.2500 0.7434  plane waves:    4419
 k-point 160 :   0.5000 0.2500 0.7500  plane waves:    4426
 k-point 161 :   0.5000 0.2500 0.7500  plane waves:    4426
 k-point 162 :   0.5000 0.2632 0.7368  plane waves:    4418
 k-point 163 :   0.5000 0.2763 0.7237  plane waves:    4414
 k-point 164 :   0.5000 0.2895 0.7105  plane waves:    4418
 k-point 165 :   0.5000 0.3026 0.6974  plane waves:    4426
 k-point 166 :   0.5000 0.3158 0.6842  plane waves:    4426
 k-point 167 :   0.5000 0.3289 0.6711  plane waves:    4422
 k-point 168 :   0.5000 0.3421 0.6579  plane waves:    4426
 k-point 169 :   0.5000 0.3553 0.6447  plane waves:    4430
 k-point 170 :   0.5000 0.3684 0.6316  plane waves:    4414
 k-point 171 :   0.5000 0.3816 0.6184  plane waves:    4410
 k-point 172 :   0.5000 0.3947 0.6053  plane waves:    4414
 k-point 173 :   0.5000 0.4079 0.5921  plane waves:    4410
 k-point 174 :   0.5000 0.4211 0.5789  plane waves:    4406
 k-point 175 :   0.5000 0.4342 0.5658  plane waves:    4400
 k-point 176 :   0.5000 0.4474 0.5526  plane waves:    4396
 k-point 177 :   0.5000 0.4605 0.5395  plane waves:    4386
 k-point 178 :   0.5000 0.4737 0.5263  plane waves:    4408
 k-point 179 :   0.5000 0.4868 0.5132  plane waves:    4416
 k-point 180 :   0.5000 0.5000 0.5000  plane waves:    4416
 k-point 181 :   0.5000 0.5000 0.5000  plane waves:    4416
 k-point 182 :   0.4934 0.4934 0.5132  plane waves:    4416
 k-point 183 :   0.4868 0.4868 0.5263  plane waves:    4416
 k-point 184 :   0.4803 0.4803 0.5395  plane waves:    4394
 k-point 185 :   0.4737 0.4737 0.5526  plane waves:    4379
 k-point 186 :   0.4671 0.4671 0.5658  plane waves:    4390
 k-point 187 :   0.4605 0.4605 0.5789  plane waves:    4406
 k-point 188 :   0.4539 0.4539 0.5921  plane waves:    4414
 k-point 189 :   0.4474 0.4474 0.6053  plane waves:    4416
 k-point 190 :   0.4408 0.4408 0.6184  plane waves:    4414
 k-point 191 :   0.4342 0.4342 0.6316  plane waves:    4418
 k-point 192 :   0.4276 0.4276 0.6447  plane waves:    4420
 k-point 193 :   0.4211 0.4211 0.6579  plane waves:    4430
 k-point 194 :   0.4145 0.4145 0.6711  plane waves:    4428
 k-point 195 :   0.4079 0.4079 0.6842  plane waves:    4430
 k-point 196 :   0.4013 0.4013 0.6974  plane waves:    4426
 k-point 197 :   0.3947 0.3947 0.7105  plane waves:    4416
 k-point 198 :   0.3882 0.3882 0.7237  plane waves:    4418
 k-point 199 :   0.3816 0.3816 0.7368  plane waves:    4416
 k-point 200 :   0.3750 0.3750 0.7500  plane waves:    4420

 maximum and minimum number of plane-waves per node :      4430     4379

 maximum number of plane-waves:      4430
 maximum index in each direction: 
   IXMAX=   10   IYMAX=   10   IZMAX=   10
   IXMIN=  -10   IYMIN=  -10   IZMIN=  -10


 serial   3D FFT for wavefunctions
 parallel 3D FFT for charge:
    minimum data exchange during FFTs selected (reduces bandwidth)


 total amount of memory used by VASP MPI-rank0   218035. kBytes
=======================================================================

   base      :      30000. kBytes
   nonl-proj :      57296. kBytes
   fftplans  :       5401. kBytes
   grid      :      10217. kBytes
   one-center:         24. kBytes
   wavefun   :     115097. kBytes
 
     INWAV:  cpu time      1.4629: real time      1.6556
 initial charge density was supplied:
 number of electron      31.9999994 magnetization 
 keeping initial charge density in first step


--------------------------------------------------------------------------------------------------------


 Maximum index for augmentation-charges         3712 (set IRDMAX)


--------------------------------------------------------------------------------------------------------


 First call to EWALD:  gamma=   0.324
 Maximum number of real-space cells 3x 3x 3
 Maximum number of reciprocal cells 3x 3x 3

    FEWALD:  cpu time      0.0112: real time      0.0035


--------------------------------------- Ionic step        1  -------------------------------------------




--------------------------------------- Iteration      1(   1)  ---------------------------------------


    POTLOK:  cpu time      0.2499: real time      0.0434
    SETDIJ:  cpu time      0.0213: real time      0.0041
     EDDAV:  cpu time     71.5373: real time     11.2717
       DOS:  cpu time      0.0342: real time      0.0057
    --------------------------------------------
      LOOP:  cpu time     71.8430: real time     11.3250

 eigenvalue-minimisations  : 14600
 total energy-change (2. order) :-0.3676041E+02  (-0.5968642E+01)
 number of electron      31.9999994 magnetization 
 augmentation part       31.9999994 magnetization 

 Free energy of the ion-electron system (eV)
  ---------------------------------------------------
  alpha Z        PSCENC =        13.16745086
  Ewald energy   TEWEN  =      -907.65855257
  -Hartree energ DENC   =       -60.77922769
  -exchange      EXHF   =         0.00000000
  -V(xc)+E(xc)   XCENC  =       -72.24088582
  PAW double counting   =      3321.58534086    -3181.66147787
  entropy T*S    EENTRO =        -0.00096998
  eigenvalues    EBANDS =        26.29710085
  atomic energy  EATOM  =       824.53081094
  Solvation  Ecorr_sol  =         0.00000000
  ---------------------------------------------------
  free energy    TOTEN  =       -36.76041042 eV

  energy without entropy =      -36.75944044  energy(sigma->0) =      -36.75992543


--------------------------------------------------------------------------------------------------------




--------------------------------------- Iteration      1(   2)  ---------------------------------------


     EDDAV:  cpu time     73.3905: real time     11.0846
       DOS:  cpu time      0.0169: real time      0.0028
    --------------------------------------------
      LOOP:  cpu time     73.4074: real time     11.0874

 eigenvalue-minimisations  : 16176
 total energy-change (2. order) :-0.3918037E+01  (-0.3549610E+01)
 number of electron      31.9999994 magnetization 
 augmentation part       31.9999994 magnetization 

 Free energy of the ion-electron system (eV)
  ---------------------------------------------------
  alpha Z        PSCENC =        13.16745086
  Ewald energy   TEWEN  =      -907.65855257
  -Hartree energ DENC   =       -60.77922769
  -exchange      EXHF   =         0.00000000
  -V(xc)+E(xc)   XCENC  =       -72.24088582
  PAW double counting   =      3321.58534086    -3181.66147787
  entropy T*S    EENTRO =        -0.00000000
  eigenvalues    EBANDS =        22.37809396
  atomic energy  EATOM  =       824.53081094
  Solvation  Ecorr_sol  =         0.00000000
  ---------------------------------------------------
  free energy    TOTEN  =       -40.67844733 eV

  energy without entropy =      -40.67844733  energy(sigma->0) =      -40.67844733


--------------------------------------------------------------------------------------------------------




--------------------------------------- Iteration      1(   3)  ---------------------------------------


     EDDAV:  cpu time     71.7740: real time     10.8307
       DOS:  cpu time      0.0171: real time      0.0028
    --------------------------------------------
      LOOP:  cpu time     71.7911: real time     10.8336

 eigenvalue-minimisations  : 15960
 total energy-change (2. order) :-0.1625002E+00  (-0.1606453E+00)
 number of electron      31.9999994 magnetization 
 augmentation part       31.9999994 magnetization 

 Free energy of the ion-electron system (eV)
  ---------------------------------------------------
  alpha Z        PSCENC =        13.16745086
  Ewald energy   TEWEN  =      -907.65855257
  -Hartree energ DENC   =       -60.77922769
  -exchange      EXHF   =         0.00000000
  -V(xc)+E(xc)   XCENC  =       -72.24088582
  PAW double counting   =      3321.58534086    -3181.66147787
  entropy T*S    EENTRO =        -0.00000000
  eigenvalues    EBANDS =        22.21559378
  atomic energy  EATOM  =       824.53081094
  Solvation  Ecorr_sol  =         0.00000000
  ---------------------------------------------------
  free energy    TOTEN  =       -40.84094751 eV

  energy without entropy =      -40.84094751  energy(sigma->0) =      -40.84094751


--------------------------------------------------------------------------------------------------------




--------------------------------------- Iteration      1(   4)  ---------------------------------------


     EDDAV:  cpu time     68.1304: real time     10.2791
       DOS:  cpu time      0.0173: real time      0.0029
    --------------------------------------------
      LOOP:  cpu time     68.1478: real time     10.2820

 eigenvalue-minimisations  : 15368
 total energy-change (2. order) :-0.1764031E-02  (-0.1763427E-02)
 number of electron      31.9999994 magnetization 
 augmentation part       31.9999994 magnetization 

 Free energy of the ion-electron system (eV)
  ---------------------------------------------------
  alpha Z        PSCENC =        13.16745086
  Ewald energy   TEWEN  =      -907.65855257
  -Hartree energ DENC   =       -60.77922769
  -exchange      EXHF   =         0.00000000
  -V(xc)+E(xc)   XCENC  =       -72.24088582
  PAW double counting   =      3321.58534086    -3181.66147787
  entropy T*S    EENTRO =        -0.00000000
  eigenvalues    EBANDS =        22.21382975
  atomic energy  EATOM  =       824.53081094
  Solvation  Ecorr_sol  =         0.00000000
  ---------------------------------------------------
  free energy    TOTEN  =       -40.84271154 eV

  energy without entropy =      -40.84271154  energy(sigma->0) =      -40.84271154


--------------------------------------------------------------------------------------------------------




--------------------------------------- Iteration      1(   5)  ---------------------------------------


     EDDAV:  cpu time     70.3585: real time     10.6346
       DOS:  cpu time      0.0174: real time      0.0029
    --------------------------------------------
      LOOP:  cpu time     70.3760: real time     10.6375

 eigenvalue-minimisations  : 16040
 total energy-change (2. order) :-0.2878569E-04  (-0.2878433E-04)
 number of electron      31.9999994 magnetization 
 augmentation part       31.9999994 magnetization 

 Free energy of the ion-electron system (eV)
  ---------------------------------------------------
  alpha Z        PSCENC =        13.16745086
  Ewald energy   TEWEN  =      -907.65855257
  -Hartree energ DENC   =       -60.77922769
  -exchange      EXHF   =         0.00000000
  -V(xc)+E(xc)   XCENC  =       -72.24088582
  PAW double counting   =      3321.58534086    -3181.66147787
  entropy T*S    EENTRO =        -0.00000000
  eigenvalues    EBANDS =        22.21380097
  atomic energy  EATOM  =       824.53081094
  Solvation  Ecorr_sol  =         0.00000000
  ---------------------------------------------------
  free energy    TOTEN  =       -40.84274032 eV

  energy without entropy =      -40.84274032  energy(sigma->0) =      -40.84274032


--------------------------------------------------------------------------------------------------------




--------------------------------------- Iteration      1(   6)  ---------------------------------------


     EDDAV:  cpu time     67.3127: real time     10.2218
       DOS:  cpu time      0.0178: real time      0.0030
[...]
  146          augmentation_charge                   0.004885                          1   4
  147            fft3d_mpi                             0.002006                        1   5
  148              fftbrc_mpi                            0.001892                      1   6
  149                fftbas_plan_mpi                       0.001891                    1   7
  150                  dfftw_execute                         0.000362                  3   8
  151                  map_backward                          0.001456                  2   8
  152                    map_gather                            0.000099                1   9
  153                    m_alltoallv_z                         0.000862                1   9
  154                    map_scatter                           0.000493                1   9
  155        forloc                                0.013486                            1   3
  156          m_sumb_d                              0.010080                          1   4
  157        fornl                                 0.360289                            1   3
  158          phase                                 0.298825                        200   4
  159          m_sumb_d                              0.000017                          2   4
  160        fordep                                0.003374                            1   3
  161          setdij_                               0.003349                          6   4
  162            m_sumb_d                              0.000112                        6   5
  163        setdij_                               0.010528                           20   3
  164          m_sumb_d                              0.000420                         20   4
  165        set_dd_magatom                        0.000005                            1   3
  166        set_dd_paw                            0.001280                            1   3
  167          set_rsgf_all                          0.000000                          1   4
  168          m_sumb_d                              0.000056                          7   4
  169        strkin                                0.009416                            1   3
  170          m_sumb_d                              0.000018                          1   4
  171        strelo                                0.004096                            1   3
  172          m_sumb_d                              0.000079                          2   4
  173        strenl                                1.649285                            1   3
  174          spher                                 0.913293                         19   4
  175          phase                                 0.201918                       1800   4
  176          proj1_acc                             0.118964                      14400   4
  177          m_sumb_d                              0.000022                          1   4
  178        fft3d_mpi                             0.016140                           11   3
  179          fftbrc_mpi                            0.014625                         11   4
  180            fftbas_plan_mpi                       0.014613                       11   5
  181              dfftw_execute                         0.004180                     33   6
  182              map_forward                           0.003575                     10   6
  183                map_gather                            0.000590                    5   7
  184                m_alltoallv_z                         0.002548                    5   7
  185                map_scatter                           0.000417                    5   7
  186              map_backward                          0.006471                     12   6
  187                map_gather                            0.000468                    6   7
  188                m_alltoallv_z                         0.002808                    6   7
  189                map_scatter                           0.003183                    6   7
  190        ggaall_grid                           0.005513                            1   3
  191        m_sumb_d                              0.000215                            5   3
  192        forhar                                0.004260                            2   3
  193          m_sumb_d                              0.000145                          2   4
  194        strehar                               0.001952                            1   3
  195          m_sumb_d                              0.000065                          1   4
  196        chggra                                0.059307                            1   3
  197          fft3d_mpi                             0.056895                          3   4
  198            fftbrc_mpi                            0.055729                        3   5
  199              fftbas_plan_mpi                       0.055726                      3   6
  200                map_forward                           0.011214                    4   7
  201                  map_gather                            0.000060                  2   8
  202                  m_alltoallv_z                         0.011119                  2   8
  203                  map_scatter                           0.000017                  2   8
  204                map_backward                          0.000045                    2   7
  205                  map_gather                            0.000006                  1   8
  206                  m_alltoallv_z                         0.000026                  1   8
  207                  map_scatter                           0.000006                  1   8
  208          m_sumb_d                              0.000009                          2   4
  209          pothar                                0.000370                          1   4
  210            m_sumb_d                              0.000005                        1   5
  211        m_bcast_d                             0.000044                            2   3
  212      potlok                                0.028856                              1   2
  213        fft3d_mpi                             0.018167                           13   3
  214          fftbrc_mpi                            0.016194                         13   4
  215            fftbas_plan_mpi                       0.016184                       13   5
  216              dfftw_execute                         0.004720                     39   6
  217              map_forward                           0.004390                     14   6
  218                map_gather                            0.000774                    8   7
  219                m_alltoallv_z                         0.003009                    8   7
  220                map_scatter                           0.000584                    8   7
  221              map_backward                          0.006620                     12   6
  222                map_gather                            0.000467                    6   7
  223                m_alltoallv_z                         0.002683                    6   7
  224                map_scatter                           0.003454                    6   7
  225        ggaall_grid                           0.005507                            1   3
  226        m_sumb_d                              0.000035                            5   3
  227        pothar                                0.000834                            1   3
  228          m_sumb_d                              0.000399                          1   4
  229        m_bcast_d                             0.000250                            1   3
  230      potlok_metagga                        0.000001                              1   2
  231      set_dd_magatom                        0.000004                              1   2
  232      set_dd_paw                            0.001283                              1   2
  233        set_rsgf_all                          0.000000                            1   3
  234        m_sumb_d                              0.000045                            7   3
  235      densta                                0.002589                              1   2
  236        m_sumb_d                              0.000107                            8   3
 
 Flat profile
 ============
 
             routine name                   CPU           calls
 ---------------------------------------------------------------
 eddav                                  27.651274           6
 total_time                             10.479054           1
 hip_init_hipblas                        6.817708           1
 lapack                                  6.725831       16383
 m_alltoall_d                            6.139068      246962
 hamiltmu                                5.766959       16383
 m_sumb_d                                3.527542       50754
 init_hip                                2.369919           1
 fft3d                                   2.039914       66332
 orth1                                   1.979178       49349
 newband                                 1.671839       17583
 phase                                   1.582183        3401
 projmu_acc                              1.341123       11583
 w1_copy                                 1.186086       98298
 spher                                   0.959300          20
 ggemm                                   0.842571       21183
 redis_proj                              0.779102      114864
 redis_pw                                0.707018       91498
 overl                                   0.580232       56132
 m_bcast_z                               0.515346       22784
 strenl                                  0.415088           1
 overl1                                  0.375839       32766
 wfinit                                  0.370158           1
 lincom                                  0.329129        1400
 fftwav                                  0.322284       33566
 eccp                                    0.229391        9600
 vnlac0_acc                              0.223732       32766
 vhamil                                  0.207386       32766
 orthch                                  0.194892           1
 kinhamil                                0.180402       32766
 fftext_mpi                              0.174444       32766
 m_bcast_d                               0.165965       32855
 apply_precond                           0.153217       23166
 proj1_acc                               0.151134       16000
 choleski                                0.138991         200
 elmin                                   0.113538           1
 setup_precond                           0.091357        9600
 fftwav_mpi                              0.082073       33566
 fornl                                   0.061447           1
 hip_hipfft_makeplan                     0.052957           6
 fftbas_plan_mpi                         0.047211          44
 force_and_stress                        0.040811           1
 proall                                  0.037378           1
 proj                                    0.036268         200
 m_alltoallv_z                           0.032826          47
 inisym                                  0.032797           1
 fft3d_mpi                               0.032725       32810
 dfftw_execute                           0.021335         123
 densta                                  0.019652           7
 set_charge                              0.018134           1
 ggaall_grid                             0.016524           3
 setdij_                                 0.015723          29
 w1_projall                              0.015203       11583
 map_scatter                             0.012870          47
 potlok                                  0.011884           2
 depsum                                  0.011731           1
 strkin                                  0.009398           1
 truncate_high_frequency_w1              0.006915       42366
 set_dd_paw                              0.005282           3
 forhar                                  0.004115           2
 map_gather                              0.004024          47
 strelo                                  0.004017           1
 forloc                                  0.003406           1
 pw_charge                               0.003383         800
 augmentation_charge                     0.002879           1
 stufak                                  0.002160           2
 chggra                                  0.002033           1
 soft_charge                             0.001963           1
 strehar                                 0.001887           1
 rsp                                     0.001805           1
 pothar                                  0.001595           3
 fewald                                  0.001514           1
 hip_init_rocsolver                      0.000983           1
 fft_gq                                  0.000358           1
 posmap                                  0.000152           2
 map_forward                             0.000085          44
 map_backward                            0.000079          44
 set_rsgf_all                            0.000066           3
 rcp                                     0.000057           1
 crpa_reader                             0.000054           1
 fftbrc_mpi                              0.000042          44
 set_dd_magatom                          0.000027           3
 fordep                                  0.000025           1
 vectorpot                               0.000022           2
 hip_hipfft_makeplans                    0.000008           3
 potlok_metagga                          0.000007           2
 rotate_active_occupied_orbital          0.000004           1
 redis_pw_over_bands                     0.000000           1
 ---------------------------------------------------------------
  summed up times    88.1560890674591     
 
 Accumulative profile
 ====================
 
             routine name                   CPU           calls
 ---------------------------------------------------------------
 total_time                             88.156089           1
 elmin                                  64.491265           1
 eddav                                  64.318591           6
 hamiltmu                                7.819835       16383
 hip_init_hipblas                        6.817708           1
 lapack                                  6.725831       16383
 m_alltoall_d                            6.139068      246962
 redis_proj                              4.018041      114864
 redis_pw                                3.607147       91498
 m_sumb_d                                3.527542       50754
 newband                                 3.422308       17583
 init_hip                                2.369919           1
 force_and_stress                        2.273280           1
 fft3d                                   2.039914       66332
 orth1                                   1.979178       49349
 strenl                                  1.649285           1
 phase                                   1.582183        3401
 fftwav_mpi                              1.578432       33566
 fftwav                                  1.496359       33566
 w1_projall                              1.356326       11583
 projmu_acc                              1.341123       11583
 kinhamil                                1.245920       32766
 w1_copy                                 1.186086       98298
 fftext_mpi                              1.065518       32766
 fft3d_mpi                               1.017035       32810
 spher                                   0.959300          20
 ggemm                                   0.842571       21183
 orthch                                  0.749212           1
 overl                                   0.580232       56132
 m_bcast_z                               0.515346       22784
 wfinit                                  0.499576           1
 overl1                                  0.375839       32766
 fornl                                   0.360289           1
 lincom                                  0.329129        1400
 eccp                                    0.229391        9600
 vnlac0_acc                              0.223732       32766
 vhamil                                  0.207386       32766
 m_bcast_d                               0.165965       32855
 apply_precond                           0.153217       23166
 proj1_acc                               0.151134       16000
 choleski                                0.138991         200
 proall                                  0.136460           1
 fftbrc_mpi                              0.118472          44
 fftbas_plan_mpi                         0.118430          44
 set_charge                              0.093279           1
 setup_precond                           0.091357        9600
 proj                                    0.068439         200
 potlok                                  0.065605           2
 chggra                                  0.059307           1
 soft_charge                             0.053270           1
 hip_hipfft_makeplans                    0.052965           3
 hip_hipfft_makeplan                     0.052957           6
 inisym                                  0.032949           1
 m_alltoallv_z                           0.032826          47
 map_forward                             0.025695          44
 map_backward                            0.024189          44
 dfftw_execute                           0.021335         123
 densta                                  0.020646           7
 setdij_                                 0.016833          29
 ggaall_grid                             0.016524           3
 depsum                                  0.016522           1
 forloc                                  0.013486           1
 map_scatter                             0.012870          47
 strkin                                  0.009416           1
 truncate_high_frequency_w1              0.006915       42366
 set_dd_paw                              0.005636           3
 augmentation_charge                     0.004885           1
 forhar                                  0.004260           2
 strelo                                  0.004096           1
 map_gather                              0.004024          47
 fewald                                  0.003456           1
 pw_charge                               0.003383         800
 fordep                                  0.003374           1
 pothar                                  0.003277           3
 fft_gq                                  0.003162           1
 stufak                                  0.002160           2
 strehar                                 0.001952           1
 rsp                                     0.001805           1
 hip_init_rocsolver                      0.000983           1
 posmap                                  0.000152           2
 set_rsgf_all                            0.000066           3
 rcp                                     0.000057           1
 crpa_reader                             0.000054           1
 set_dd_magatom                          0.000027           3
 vectorpot                               0.000022           2
 potlok_metagga                          0.000007           2
 rotate_active_occupied_orbital          0.000004           1
 redis_pw_over_bands                     0.000000           1
 ---------------------------------------------------------------
 
Profiling took   0.490120  0.148674  0.002630  0.002604 seconds
Profiling took   0.319332 seconds
