<?xml version="1.0" encoding="ISO-8859-1"?>
<modeling>
 <generator>
  <i name="program" type="string">vasp </i>
  <i name="version" type="string">6.4.2  </i>
  <i name="subversion" type="string">20Jul23 (build Nov 02 2024 22:18:10) complex                          parallel </i>
  <i name="platform" type="string">LinuxIFC </i>
  <i name="date" type="string">2026 05 03 </i>
  <i name="time" type="string">21:03:47 </i>
 </generator>
 <incar>
  <i type="string" name="SYSTEM">Si_bands</i>
  <i type="string" name="PREC">Accurate</i>
  <i type="string" name="ALGO">Normal</i>
  <i type="int" name="ICHARG">    11</i>
  <i name="EDIFF">      0.00000100</i>
  <i name="ENCUT">    520.00000000</i>
  <i type="int" name="NBANDS">    32</i>
  <i type="int" name="ISMEAR">     0</i>
  <i name="SIGMA">      0.05000000</i>
  <i type="logical" name="LWAVE"> F  </i>
  <i type="logical" name="LCHARG"> F  </i>
 </incar>
 <primitive_cell>
  <structure name="primitive_cell" >
   <crystal>
    <varray name="basis" >
     <v>       2.73472878      -2.73472878       0.00000000 </v>
     <v>       2.73472878       0.00000000       2.73472878 </v>
     <v>      -0.00000000      -2.73472878       2.73472878 </v>
    </varray>
    <i name="volume">     40.90465942 </i>
    <varray name="rec_basis" >
     <v>       0.18283349      -0.18283349      -0.18283349 </v>
     <v>       0.18283349       0.18283349       0.18283349 </v>
     <v>      -0.18283349      -0.18283349       0.18283349 </v>
    </varray>
   </crystal>
   <varray name="positions" >
    <v>       0.00000000       0.00000000       0.00000000 </v>
    <v>       0.75000000       0.75000000       0.75000000 </v>
   </varray>
  </structure>
  <varray name="primitive_index" >
   <v type="int" >        1 </v>
   <v type="int" >        5 </v>
  </varray>
 </primitive_cell>
 <kpoints>
  <generation param="listgenerated">
   <i name="divisions" type="int">      20 </i>
   <v>       0.00000000       0.00000000       0.00000000 </v>
   <v>       0.50000000       0.00000000       0.50000000 </v>
   <v>       0.50000000       0.25000000       0.75000000 </v>
   <v>       0.50000000       0.50000000       0.50000000 </v>
   <v>       0.00000000       0.00000000       0.00000000 </v>
   <v>       0.37500000       0.37500000       0.75000000 </v>
   <v>       0.50000000       0.00000000       0.50000000 </v>
   <v>       0.62500000       0.25000000       0.62500000 </v>
   <v>       0.50000000       0.25000000       0.75000000 </v>
   <v>       0.50000000       0.50000000       0.50000000 </v>
   <v>       0.37500000       0.37500000       0.75000000 </v>
  </generation>
  <varray name="kpointlist" >
   <v>       0.00000000       0.00000000       0.00000000 </v>
   <v>       0.02631579       0.00000000       0.02631579 </v>
   <v>       0.05263158       0.00000000       0.05263158 </v>
   <v>       0.07894737       0.00000000       0.07894737 </v>
   <v>       0.10526316       0.00000000       0.10526316 </v>
   <v>       0.13157895       0.00000000       0.13157895 </v>
   <v>       0.15789474       0.00000000       0.15789474 </v>
   <v>       0.18421053       0.00000000       0.18421053 </v>
   <v>       0.21052632       0.00000000       0.21052632 </v>
   <v>       0.23684211       0.00000000       0.23684211 </v>
   <v>       0.26315789       0.00000000       0.26315789 </v>
   <v>       0.28947368       0.00000000       0.28947368 </v>
   <v>       0.31578947       0.00000000       0.31578947 </v>
   <v>       0.34210526       0.00000000       0.34210526 </v>
   <v>       0.36842105       0.00000000       0.36842105 </v>
   <v>       0.39473684       0.00000000       0.39473684 </v>
   <v>       0.42105263       0.00000000       0.42105263 </v>
   <v>       0.44736842       0.00000000       0.44736842 </v>
   <v>       0.47368421       0.00000000       0.47368421 </v>
   <v>       0.50000000       0.00000000       0.50000000 </v>
   <v>       0.50000000       0.00000000       0.50000000 </v>
   <v>       0.50000000       0.01315789       0.51315789 </v>
   <v>       0.50000000       0.02631579       0.52631579 </v>
   <v>       0.50000000       0.03947368       0.53947368 </v>
   <v>       0.50000000       0.05263158       0.55263158 </v>
   <v>       0.50000000       0.06578947       0.56578947 </v>
   <v>       0.50000000       0.07894737       0.57894737 </v>
   <v>       0.50000000       0.09210526       0.59210526 </v>
   <v>       0.50000000       0.10526316       0.60526316 </v>
   <v>       0.50000000       0.11842105       0.61842105 </v>
   <v>       0.50000000       0.13157895       0.63157895 </v>
   <v>       0.50000000       0.14473684       0.64473684 </v>
   <v>       0.50000000       0.15789474       0.65789474 </v>
   <v>       0.50000000       0.17105263       0.67105263 </v>
   <v>       0.50000000       0.18421053       0.68421053 </v>
   <v>       0.50000000       0.19736842       0.69736842 </v>
   <v>       0.50000000       0.21052632       0.71052632 </v>
   <v>       0.50000000       0.22368421       0.72368421 </v>
   <v>       0.50000000       0.23684211       0.73684211 </v>
   <v>       0.50000000       0.25000000       0.75000000 </v>
   <v>       0.50000000       0.25000000       0.75000000 </v>
   <v>       0.50000000       0.26315789       0.73684211 </v>
   <v>       0.50000000       0.27631579       0.72368421 </v>
   <v>       0.50000000       0.28947368       0.71052632 </v>
   <v>       0.50000000       0.30263158       0.69736842 </v>
   <v>       0.50000000       0.31578947       0.68421053 </v>
   <v>       0.50000000       0.32894737       0.67105263 </v>
   <v>       0.50000000       0.34210526       0.65789474 </v>
   <v>       0.50000000       0.35526316       0.64473684 </v>
   <v>       0.50000000       0.36842105       0.63157895 </v>
   <v>       0.50000000       0.38157895       0.61842105 </v>
   <v>       0.50000000       0.39473684       0.60526316 </v>
   <v>       0.50000000       0.40789474       0.59210526 </v>
   <v>       0.50000000       0.42105263       0.57894737 </v>
   <v>       0.50000000       0.43421053       0.56578947 </v>
   <v>       0.50000000       0.44736842       0.55263158 </v>
   <v>       0.50000000       0.46052632       0.53947368 </v>
   <v>       0.50000000       0.47368421       0.52631579 </v>
   <v>       0.50000000       0.48684211       0.51315789 </v>
   <v>       0.50000000       0.50000000       0.50000000 </v>
   <v>       0.50000000       0.50000000       0.50000000 </v>
   <v>       0.47368421       0.47368421       0.47368421 </v>
   <v>       0.44736842       0.44736842       0.44736842 </v>
   <v>       0.42105263       0.42105263       0.42105263 </v>
   <v>       0.39473684       0.39473684       0.39473684 </v>
   <v>       0.36842105       0.36842105       0.36842105 </v>
   <v>       0.34210526       0.34210526       0.34210526 </v>
   <v>       0.31578947       0.31578947       0.31578947 </v>
   <v>       0.28947368       0.28947368       0.28947368 </v>
   <v>       0.26315789       0.26315789       0.26315789 </v>
   <v>       0.23684211       0.23684211       0.23684211 </v>
   <v>       0.21052632       0.21052632       0.21052632 </v>
   <v>       0.18421053       0.18421053       0.18421053 </v>
   <v>       0.15789474       0.15789474       0.15789474 </v>
   <v>       0.13157895       0.13157895       0.13157895 </v>
   <v>       0.10526316       0.10526316       0.10526316 </v>
   <v>       0.07894737       0.07894737       0.07894737 </v>
   <v>       0.05263158       0.05263158       0.05263158 </v>
   <v>       0.02631579       0.02631579       0.02631579 </v>
   <v>       0.00000000       0.00000000       0.00000000 </v>
   <v>       0.00000000       0.00000000       0.00000000 </v>
   <v>       0.01973684       0.01973684       0.03947368 </v>
   <v>       0.03947368       0.03947368       0.07894737 </v>
   <v>       0.05921053       0.05921053       0.11842105 </v>
   <v>       0.07894737       0.07894737       0.15789474 </v>
   <v>       0.09868421       0.09868421       0.19736842 </v>
   <v>       0.11842105       0.11842105       0.23684211 </v>
   <v>       0.13815789       0.13815789       0.27631579 </v>
   <v>       0.15789474       0.15789474       0.31578947 </v>
   <v>       0.17763158       0.17763158       0.35526316 </v>
   <v>       0.19736842       0.19736842       0.39473684 </v>
   <v>       0.21710526       0.21710526       0.43421053 </v>
   <v>       0.23684211       0.23684211       0.47368421 </v>
   <v>       0.25657895       0.25657895       0.51315789 </v>
   <v>       0.27631579       0.27631579       0.55263158 </v>
   <v>       0.29605263       0.29605263       0.59210526 </v>
   <v>       0.31578947       0.31578947       0.63157895 </v>
   <v>       0.33552632       0.33552632       0.67105263 </v>
   <v>       0.35526316       0.35526316       0.71052632 </v>
   <v>       0.37500000       0.37500000       0.75000000 </v>
   <v>       0.37500000       0.37500000       0.75000000 </v>
   <v>       0.38157895       0.35526316       0.73684211 </v>
   <v>       0.38815789       0.33552632       0.72368421 </v>
   <v>       0.39473684       0.31578947       0.71052632 </v>
   <v>       0.40131579       0.29605263       0.69736842 </v>
   <v>       0.40789474       0.27631579       0.68421053 </v>
   <v>       0.41447368       0.25657895       0.67105263 </v>
   <v>       0.42105263       0.23684211       0.65789474 </v>
   <v>       0.42763158       0.21710526       0.64473684 </v>
   <v>       0.43421053       0.19736842       0.63157895 </v>
   <v>       0.44078947       0.17763158       0.61842105 </v>
   <v>       0.44736842       0.15789474       0.60526316 </v>
   <v>       0.45394737       0.13815789       0.59210526 </v>
   <v>       0.46052632       0.11842105       0.57894737 </v>
   <v>       0.46710526       0.09868421       0.56578947 </v>
   <v>       0.47368421       0.07894737       0.55263158 </v>
   <v>       0.48026316       0.05921053       0.53947368 </v>
   <v>       0.48684211       0.03947368       0.52631579 </v>
   <v>       0.49342105       0.01973684       0.51315789 </v>
   <v>       0.50000000       0.00000000       0.50000000 </v>
   <v>       0.50000000       0.00000000       0.50000000 </v>
   <v>       0.50657895       0.01315789       0.50657895 </v>
   <v>       0.51315789       0.02631579       0.51315789 </v>
   <v>       0.51973684       0.03947368       0.51973684 </v>
   <v>       0.52631579       0.05263158       0.52631579 </v>
   <v>       0.53289474       0.06578947       0.53289474 </v>
   <v>       0.53947368       0.07894737       0.53947368 </v>
   <v>       0.54605263       0.09210526       0.54605263 </v>
   <v>       0.55263158       0.10526316       0.55263158 </v>
   <v>       0.55921053       0.11842105       0.55921053 </v>
   <v>       0.56578947       0.13157895       0.56578947 </v>
   <v>       0.57236842       0.14473684       0.57236842 </v>
   <v>       0.57894737       0.15789474       0.57894737 </v>
   <v>       0.58552632       0.17105263       0.58552632 </v>
   <v>       0.59210526       0.18421053       0.59210526 </v>
   <v>       0.59868421       0.19736842       0.59868421 </v>
   <v>       0.60526316       0.21052632       0.60526316 </v>
   <v>       0.61184211       0.22368421       0.61184211 </v>
   <v>       0.61842105       0.23684211       0.61842105 </v>
   <v>       0.62500000       0.25000000       0.62500000 </v>
   <v>       0.62500000       0.25000000       0.62500000 </v>
   <v>       0.61842105       0.25000000       0.63157895 </v>
   <v>       0.61184211       0.25000000       0.63815789 </v>
   <v>       0.60526316       0.25000000       0.64473684 </v>
   <v>       0.59868421       0.25000000       0.65131579 </v>
   <v>       0.59210526       0.25000000       0.65789474 </v>
   <v>       0.58552632       0.25000000       0.66447368 </v>
   <v>       0.57894737       0.25000000       0.67105263 </v>
   <v>       0.57236842       0.25000000       0.67763158 </v>
   <v>       0.56578947       0.25000000       0.68421053 </v>
   <v>       0.55921053       0.25000000       0.69078947 </v>
   <v>       0.55263158       0.25000000       0.69736842 </v>
   <v>       0.54605263       0.25000000       0.70394737 </v>
   <v>       0.53947368       0.25000000       0.71052632 </v>
   <v>       0.53289474       0.25000000       0.71710526 </v>
   <v>       0.52631579       0.25000000       0.72368421 </v>
   <v>       0.51973684       0.25000000       0.73026316 </v>
   <v>       0.51315789       0.25000000       0.73684211 </v>
   <v>       0.50657895       0.25000000       0.74342105 </v>
   <v>       0.50000000       0.25000000       0.75000000 </v>
   <v>       0.50000000       0.25000000       0.75000000 </v>
   <v>       0.50000000       0.26315789       0.73684211 </v>
   <v>       0.50000000       0.27631579       0.72368421 </v>
   <v>       0.50000000       0.28947368       0.71052632 </v>
   <v>       0.50000000       0.30263158       0.69736842 </v>
   <v>       0.50000000       0.31578947       0.68421053 </v>
   <v>       0.50000000       0.32894737       0.67105263 </v>
   <v>       0.50000000       0.34210526       0.65789474 </v>
   <v>       0.50000000       0.35526316       0.64473684 </v>
   <v>       0.50000000       0.36842105       0.63157895 </v>
   <v>       0.50000000       0.38157895       0.61842105 </v>
   <v>       0.50000000       0.39473684       0.60526316 </v>
   <v>       0.50000000       0.40789474       0.59210526 </v>
   <v>       0.50000000       0.42105263       0.57894737 </v>
   <v>       0.50000000       0.43421053       0.56578947 </v>
   <v>       0.50000000       0.44736842       0.55263158 </v>
   <v>       0.50000000       0.46052632       0.53947368 </v>
   <v>       0.50000000       0.47368421       0.52631579 </v>
   <v>       0.50000000       0.48684211       0.51315789 </v>
   <v>       0.50000000       0.50000000       0.50000000 </v>
   <v>       0.50000000       0.50000000       0.50000000 </v>
   <v>       0.49342105       0.49342105       0.51315789 </v>
   <v>       0.48684211       0.48684211       0.52631579 </v>
   <v>       0.48026316       0.48026316       0.53947368 </v>
   <v>       0.47368421       0.47368421       0.55263158 </v>
   <v>       0.46710526       0.46710526       0.56578947 </v>
   <v>       0.46052632       0.46052632       0.57894737 </v>
   <v>       0.45394737       0.45394737       0.59210526 </v>
   <v>       0.44736842       0.44736842       0.60526316 </v>
   <v>       0.44078947       0.44078947       0.61842105 </v>
   <v>       0.43421053       0.43421053       0.63157895 </v>
   <v>       0.42763158       0.42763158       0.64473684 </v>
   <v>       0.42105263       0.42105263       0.65789474 </v>
   <v>       0.41447368       0.41447368       0.67105263 </v>
   <v>       0.40789474       0.40789474       0.68421053 </v>
   <v>       0.40131579       0.40131579       0.69736842 </v>
   <v>       0.39473684       0.39473684       0.71052632 </v>
   <v>       0.38815789       0.38815789       0.72368421 </v>
   <v>       0.38157895       0.38157895       0.73684211 </v>
   <v>       0.37500000       0.37500000       0.75000000 </v>
  </varray>
  <varray name="weights" >
   <v>       0.00500000 </v>
   <v>       0.00500000 </v>
   <v>       0.00500000 </v>
   <v>       0.00500000 </v>
   <v>       0.00500000 </v>
   <v>       0.00500000 </v>
   <v>       0.00500000 </v>
   <v>       0.00500000 </v>
   <v>       0.00500000 </v>
   <v>       0.00500000 </v>
   <v>       0.00500000 </v>
   <v>       0.00500000 </v>
   <v>       0.00500000 </v>
   <v>       0.00500000 </v>
   <v>       0.00500000 </v>
   <v>       0.00500000 </v>
   <v>       0.00500000 </v>
   <v>       0.00500000 </v>
   <v>       0.00500000 </v>
   <v>       0.00500000 </v>
   <v>       0.00500000 </v>
   <v>       0.00500000 </v>
   <v>       0.00500000 </v>
   <v>       0.00500000 </v>
   <v>       0.00500000 </v>
   <v>       0.00500000 </v>
   <v>       0.00500000 </v>
   <v>       0.00500000 </v>
   <v>       0.00500000 </v>
   <v>       0.00500000 </v>
   <v>       0.00500000 </v>
   <v>       0.00500000 </v>
   <v>       0.00500000 </v>
   <v>       0.00500000 </v>
   <v>       0.00500000 </v>
   <v>       0.00500000 </v>
   <v>       0.00500000 </v>
   <v>       0.00500000 </v>
   <v>       0.00500000 </v>
   <v>       0.00500000 </v>
   <v>       0.00500000 </v>
   <v>       0.00500000 </v>
   <v>       0.00500000 </v>
   <v>       0.00500000 </v>
   <v>       0.00500000 </v>
   <v>       0.00500000 </v>
   <v>       0.00500000 </v>
   <v>       0.00500000 </v>
   <v>       0.00500000 </v>
   <v>       0.00500000 </v>
   <v>       0.00500000 </v>
   <v>       0.00500000 </v>
   <v>       0.00500000 </v>
   <v>       0.00500000 </v>
   <v>       0.00500000 </v>
   <v>       0.00500000 </v>
   <v>       0.00500000 </v>
   <v>       0.00500000 </v>
   <v>       0.00500000 </v>
   <v>       0.00500000 </v>
   <v>       0.00500000 </v>
   <v>       0.00500000 </v>
   <v>       0.00500000 </v>
   <v>       0.00500000 </v>
   <v>       0.00500000 </v>
   <v>       0.00500000 </v>
   <v>       0.00500000 </v>
   <v>       0.00500000 </v>
   <v>       0.00500000 </v>
   <v>       0.00500000 </v>
   <v>       0.00500000 </v>
   <v>       0.00500000 </v>
   <v>       0.00500000 </v>
   <v>       0.00500000 </v>
   <v>       0.00500000 </v>
   <v>       0.00500000 </v>
   <v>       0.00500000 </v>
   <v>       0.00500000 </v>
   <v>       0.00500000 </v>
   <v>       0.00500000 </v>
   <v>       0.00500000 </v>
   <v>       0.00500000 </v>
   <v>       0.00500000 </v>
   <v>       0.00500000 </v>
   <v>       0.00500000 </v>
   <v>       0.00500000 </v>
   <v>       0.00500000 </v>
   <v>       0.00500000 </v>
   <v>       0.00500000 </v>
   <v>       0.00500000 </v>
   <v>       0.00500000 </v>
   <v>       0.00500000 </v>
   <v>       0.00500000 </v>
   <v>       0.00500000 </v>
   <v>       0.00500000 </v>
   <v>       0.00500000 </v>
   <v>       0.00500000 </v>
   <v>       0.00500000 </v>
   <v>       0.00500000 </v>
   <v>       0.00500000 </v>
   <v>       0.00500000 </v>
   <v>       0.00500000 </v>
   <v>       0.00500000 </v>
   <v>       0.00500000 </v>
   <v>       0.00500000 </v>
   <v>       0.00500000 </v>
   <v>       0.00500000 </v>
   <v>       0.00500000 </v>
   <v>       0.00500000 </v>
   <v>       0.00500000 </v>
   <v>       0.00500000 </v>
   <v>       0.00500000 </v>
   <v>       0.00500000 </v>
   <v>       0.00500000 </v>
   <v>       0.00500000 </v>
   <v>       0.00500000 </v>
   <v>       0.00500000 </v>
   <v>       0.00500000 </v>
   <v>       0.00500000 </v>
   <v>       0.00500000 </v>
   <v>       0.00500000 </v>
   <v>       0.00500000 </v>
   <v>       0.00500000 </v>
   <v>       0.00500000 </v>
   <v>       0.00500000 </v>
   <v>       0.00500000 </v>
   <v>       0.00500000 </v>
   <v>       0.00500000 </v>
   <v>       0.00500000 </v>
   <v>       0.00500000 </v>
   <v>       0.00500000 </v>
   <v>       0.00500000 </v>
   <v>       0.00500000 </v>
   <v>       0.00500000 </v>
   <v>       0.00500000 </v>
   <v>       0.00500000 </v>
   <v>       0.00500000 </v>
   <v>       0.00500000 </v>
   <v>       0.00500000 </v>
   <v>       0.00500000 </v>
   <v>       0.00500000 </v>
   <v>       0.00500000 </v>
   <v>       0.00500000 </v>
   <v>       0.00500000 </v>
   <v>       0.00500000 </v>
   <v>       0.00500000 </v>
   <v>       0.00500000 </v>
   <v>       0.00500000 </v>
   <v>       0.00500000 </v>
   <v>       0.00500000 </v>
   <v>       0.00500000 </v>
   <v>       0.00500000 </v>
   <v>       0.00500000 </v>
   <v>       0.00500000 </v>
   <v>       0.00500000 </v>
   <v>       0.00500000 </v>
   <v>       0.00500000 </v>
   <v>       0.00500000 </v>
   <v>       0.00500000 </v>
   <v>       0.00500000 </v>
   <v>       0.00500000 </v>
   <v>       0.00500000 </v>
   <v>       0.00500000 </v>
   <v>       0.00500000 </v>
   <v>       0.00500000 </v>
   <v>       0.00500000 </v>
   <v>       0.00500000 </v>
   <v>       0.00500000 </v>
   <v>       0.00500000 </v>
   <v>       0.00500000 </v>
   <v>       0.00500000 </v>
   <v>       0.00500000 </v>
   <v>       0.00500000 </v>
   <v>       0.00500000 </v>
   <v>       0.00500000 </v>
   <v>       0.00500000 </v>
   <v>       0.00500000 </v>
   <v>       0.00500000 </v>
   <v>       0.00500000 </v>
   <v>       0.00500000 </v>
   <v>       0.00500000 </v>
   <v>       0.00500000 </v>
   <v>       0.00500000 </v>
   <v>       0.00500000 </v>
   <v>       0.00500000 </v>
   <v>       0.00500000 </v>
   <v>       0.00500000 </v>
   <v>       0.00500000 </v>
   <v>       0.00500000 </v>
   <v>       0.00500000 </v>
   <v>       0.00500000 </v>
   <v>       0.00500000 </v>
   <v>       0.00500000 </v>
   <v>       0.00500000 </v>
   <v>       0.00500000 </v>
   <v>       0.00500000 </v>
   <v>       0.00500000 </v>
   <v>       0.00500000 </v>
   <v>       0.00500000 </v>
   <v>       0.00500000 </v>
  </varray>
 </kpoints>
 <parameters>
  <separator name="general" >
   <i type="string" name="SYSTEM">Si_bands</i>
   <i type="logical" name="LCOMPAT"> F  </i>
  </separator>
  <separator name="electronic" >
   <i type="string" name="PREC">accura</i>
   <i name="ENMAX">    520.00000000</i>
   <i name="ENAUG">    322.06900000</i>
   <i name="EDIFF">      0.00000100</i>
   <i type="int" name="IALGO">    38</i>
   <i type="int" name="IWAVPR">    10</i>
   <i type="int" name="NBANDS">    32</i>
   <i type="int" name="NBANDSLOW">    -1</i>
   <i type="int" name="NBANDSHIGH">    -1</i>
   <i name="NELECT">     32.00000000</i>
   <i type="int" name="TURBO">     0</i>
   <i type="int" name="IRESTART">     0</i>
   <i type="int" name="NREBOOT">     0</i>
   <i type="int" name="NMIN">     0</i>
   <i name="EREF">      0.00000000</i>
   <separator name="electronic smearing" >
    <i type="int" name="ISMEAR">     0</i>
    <i name="SIGMA">      0.05000000</i>
    <i name="KSPACING">      0.50000000</i>
    <i type="logical" name="KGAMMA"> T  </i>
    <i type="logical" name="KBLOWUP"> T  </i>
   </separator>
   <separator name="electronic projectors" >
    <i type="logical" name="LREAL"> F  </i>
    <v name="ROPT">      0.00000000</v>
    <i type="int" name="LMAXPAW">  -100</i>
    <i type="int" name="LMAXMIX">     2</i>
    <i type="logical" name="NLSPLINE"> F  </i>
   </separator>
   <separator name="electronic startup" >
    <i type="int" name="ISTART">     1</i>
    <i type="int" name="ICHARG">    11</i>
    <i type="int" name="INIWAV">     1</i>
   </separator>
   <separator name="electronic spin" >
    <i type="int" name="ISPIN">     1</i>
    <i type="logical" name="LNONCOLLINEAR"> F  </i>
    <v name="MAGMOM">      1.00000000      1.00000000      1.00000000      1.00000000      1.00000000      1.00000000      1.00000000      1.00000000</v>
    <i name="NUPDOWN">     -1.00000000</i>
    <i type="logical" name="LSORBIT"> F  </i>
    <v name="SAXIS">      0.00000000      0.00000000      1.00000000</v>
    <i type="logical" name="LSPIRAL"> F  </i>
    <v name="QSPIRAL">      0.00000000      0.00000000      0.00000000</v>
    <i type="logical" name="LZEROZ"> F  </i>
   </separator>
   <separator name="electronic exchange-correlation" >
    <i type="logical" name="LASPH"> F  </i>
    <i type="logical" name="LMETAGGA"> F  </i>
   </separator>
   <separator name="electronic convergence" >
    <i type="int" name="NELM">    60</i>
    <i type="int" name="NELMDL">     0</i>
    <i type="int" name="NELMIN">     2</i>
    <i name="ENINI">    520.00000000</i>
    <separator name="electronic convergence detail" >
     <i type="logical" name="LDIAG"> T  </i>
     <i type="logical" name="LSUBROT"> F  </i>
     <i name="WEIMIN">      0.00000000</i>
     <i name="EBREAK">      0.00000001</i>
     <i name="DEPER">      0.30000000</i>
     <i type="int" name="NRMM">     4</i>
     <i name="TIME">      0.40000000</i>
    </separator>
   </separator>
   <separator name="electronic mixer" >
    <i name="AMIX">      0.40000000</i>
    <i name="BMIX">      1.00000000</i>
    <i name="AMIN">      0.10000000</i>
    <i name="AMIX_MAG">      1.60000000</i>
    <i name="BMIX_MAG">      1.00000000</i>
    <separator name="electronic mixer details" >
     <i type="int" name="IMIX">     4</i>
     <i type="logical" name="MIXFIRST"> F  </i>
     <i type="int" name="MAXMIX">   -45</i>
     <i name="WC">    100.00000000</i>
     <i type="int" name="INIMIX">     1</i>
     <i type="int" name="MIXPRE">     1</i>
     <i type="int" name="MREMOVE">     5</i>
    </separator>
   </separator>
   <separator name="electronic dipolcorrection" >
    <i type="logical" name="LDIPOL"> F  </i>
    <i type="logical" name="LMONO"> F  </i>
    <i type="int" name="IDIPOL">     0</i>
    <i name="EPSILON">      1.00000000</i>
    <v name="DIPOL">   -100.00000000   -100.00000000   -100.00000000</v>
    <i name="EFIELD">      0.00000000</i>
   </separator>
  </separator>
  <separator name="grids" >
   <i type="int" name="NGX">    42</i>
   <i type="int" name="NGY">    42</i>
   <i type="int" name="NGZ">    42</i>
   <i type="int" name="NGXF">    84</i>
   <i type="int" name="NGYF">    84</i>
   <i type="int" name="NGZF">    84</i>
   <i type="logical" name="ADDGRID"> F  </i>
  </separator>
  <separator name="ionic" >
   <i type="int" name="NSW">     0</i>
   <i type="int" name="IBRION">    -1</i>
   <i type="int" name="MDALGO">     0</i>
   <i type="int" name="ISIF">     2</i>
   <i name="PSTRESS">      0.00000000</i>
   <i name="EDIFFG">      0.00001000</i>
   <i type="int" name="NFREE">     0</i>
   <i name="POTIM">      0.50000000</i>
   <i name="SMASS">     -3.00000000</i>
   <i name="SCALEE">      1.00000000</i>
  </separator>
  <separator name="ionic md" >
   <i name="TEBEG">      0.00010000</i>
   <i name="TEEND">      0.00010000</i>
   <i type="int" name="NBLOCK">     1</i>
   <i type="int" name="KBLOCK">     1</i>
   <i type="int" name="NPACO">   256</i>
   <i name="APACO">     10.00000000</i>
  </separator>
  <separator name="symmetry" >
   <i type="int" name="ISYM">     2</i>
   <i name="SYMPREC">      0.00001000</i>
  </separator>
  <separator name="dos" >
   <i type="int" name="LORBIT">     0</i>
   <v name="RWIGS">     -1.00000000</v>
   <i type="int" name="NEDOS">   301</i>
   <i name="EMIN">     10.00000000</i>
   <i name="EMAX">    -10.00000000</i>
   <i name="EFERMI">      0.00000000</i>
  </separator>
  <separator name="writing" >
   <i type="int" name="NWRITE">     2</i>
   <i type="logical" name="LWAVE"> F  </i>
   <i type="logical" name="LDOWNSAMPLE"> F  </i>
   <i type="logical" name="LCHARG"> F  </i>
   <i type="logical" name="LPARD"> F  </i>
   <i type="logical" name="LVTOT"> F  </i>
   <i type="logical" name="LVHAR"> F  </i>
   <i type="logical" name="LELF"> F  </i>
   <i type="logical" name="LOPTICS"> F  </i>
   <v name="STM">      0.00000000      0.00000000      0.00000000      0.00000000      0.00000000      0.00000000      0.00000000</v>
  </separator>
  <separator name="performance" >
   <i type="int" name="NPAR">     4</i>
   <i type="int" name="NSIM">     4</i>
   <i type="int" name="NBLK">    -1</i>
   <i type="logical" name="LPLANE"> T  </i>
   <i type="logical" name="LSCALAPACK"> T  </i>
   <i type="logical" name="LSCAAWARE"> F  </i>
   <i type="logical" name="LSCALU"> F  </i>
   <i type="logical" name="LASYNC"> F  </i>
   <i type="logical" name="LORBITALREAL"> F  </i>
  </separator>
  <separator name="miscellaneous" >
   <i type="int" name="IDIOT">     3</i>
   <i type="int" name="PHON_NSTRUCT">    -1</i>
   <i type="logical" name="LMUSIC"> F  </i>
   <v name="POMASS">     28.08500000</v>
   <v name="DARWINR">      0.00000000</v>
   <v name="DARWINV">      1.00000000</v>
   <i type="logical" name="LCORR"> T  </i>
  </separator>
  <i type="logical" name="GGA_COMPAT"> T  </i>
  <i type="logical" name="LBERRY"> F  </i>
  <i type="int" name="ICORELEVEL">     0</i>
  <i type="logical" name="LDAU"> F  </i>
  <i type="int" name="I_CONSTRAINED_M">     0</i>
  <separator name="electronic exchange-correlation" >
   <i type="string" name="GGA">--</i>
   <i type="int" name="VOSKOWN">     0</i>
   <i type="logical" name="LHFCALC"> F  </i>
   <i type="string" name="PRECFOCK"></i>
   <i type="logical" name="LSYMGRAD"> F  </i>
   <i type="logical" name="LHFONE"> F  </i>
   <i type="logical" name="LRHFCALC"> F  </i>
   <i type="logical" name="LTHOMAS"> F  </i>
   <i type="logical" name="LMODELHF"> F  </i>
   <i type="logical" name="LFOCKACE"> F  </i>
   <i name="ENCUT4O">     -1.00000000</i>
   <i type="int" name="EXXOEP">     0</i>
   <i type="int" name="FOURORBIT">     0</i>
   <i name="AEXX">      0.00000000</i>
   <i name="HFALPHA">      0.00000000</i>
   <i name="MCALPHA">      0.00000000</i>
   <i name="ALDAX">      1.00000000</i>
   <i name="AGGAX">      1.00000000</i>
   <i name="ALDAC">      1.00000000</i>
   <i name="AGGAC">      1.00000000</i>
   <i type="int" name="NKREDX">     1</i>
   <i type="int" name="NKREDY">     1</i>
   <i type="int" name="NKREDZ">     1</i>
   <i type="logical" name="SHIFTRED"> F  </i>
   <i type="logical" name="ODDONLY"> F  </i>
   <i type="logical" name="EVENONLY"> F  </i>
   <i type="int" name="LMAXFOCK">     0</i>
   <i type="int" name="NMAXFOCKAE">     0</i>
   <i type="logical" name="LFOCKAEDFT"> F  </i>
   <i name="HFSCREEN">      0.00000000</i>
   <i name="HFSCREENC">      0.00000000</i>
   <i type="int" name="NBANDSGWLOW">     0</i>
  </separator>
  <separator name="vdW DFT" >
   <i type="logical" name="LUSE_VDW"> F  </i>
   <i type="int" name="IVDW_NL">     1</i>
   <i type="logical" name="LSPIN_VDW"> F  </i>
   <i name="Zab_VDW">     -0.84910000</i>
   <i name="PARAM1">      0.12340000</i>
   <i name="PARAM2">      1.00000000</i>
   <i name="PARAM3">      0.00000000</i>
  </separator>
  <separator name="model GW" >
   <i type="int" name="MODEL_GW">     0</i>
   <i name="MODEL_EPS0">     12.27139783</i>
   <i name="MODEL_ALPHA">      1.00000000</i>
  </separator>
  <separator name="linear response parameters" >
   <i type="logical" name="LEPSILON"> F  </i>
   <i type="logical" name="LRPA"> F  </i>
   <i type="logical" name="LNABLA"> F  </i>
   <i type="logical" name="LVEL"> F  </i>
   <i name="CSHIFT">      0.10000000</i>
   <i name="OMEGAMAX">     -1.00000000</i>
   <i name="DEG_THRESHOLD">      0.00200000</i>
   <i name="RTIME">     -0.10000000</i>
   <i name="WPLASMAI">      0.00000000</i>
   <v name="DFIELD">      0.00000000      0.00000000      0.00000000</v>
   <v name="WPLASMA">      0.00000000      0.00000000      0.00000000      0.00000000      0.00000000      0.00000000      0.00000000      0.00000000      0.00000000</v>
  </separator>
  <separator name="orbital magnetization" >
   <i type="logical" name="NUCIND"> F  </i>
   <v name="MAGPOS">      0.00000000      0.00000000      0.00000000</v>
   <i type="logical" name="LNICSALL"> T  </i>
   <i type="logical" name="ORBITALMAG"> F  </i>
   <i type="logical" name="LMAGBLOCH"> F  </i>
   <i type="logical" name="LCHIMAG"> F  </i>
   <i type="logical" name="LGAUGE"> T  </i>
   <i type="int" name="MAGATOM">     0</i>
   <v name="MAGDIPOL">      0.00000000      0.00000000      0.00000000</v>
   <v name="AVECCONST">      0.00000000      0.00000000      0.00000000</v>
  </separator>
  <separator name="response functions" >
   <i type="logical" name="LALL_IN_ONE"> F  </i>
   <i type="int" name="IALL_IN_ONE">    -1</i>
   <i type="int" name="NBANDS_WAVE">    -1</i>
   <i type="logical" name="LFINITE_TEMPERATURE"> F  </i>
   <i type="logical" name="LADDER"> F  </i>
   <i type="logical" name="LRPAFORCE"> F  </i>
   <i type="logical" name="LFXC"> F  </i>
   <i type="logical" name="LHARTREE"> T  </i>
   <i type="int" name="IBSE">     0</i>
   <v type="int" name="KPOINT">    -1     0     0     0</v>
   <i type="logical" name="LTCTC"> F  </i>
   <i type="logical" name="LTCTE"> F  </i>
   <i type="logical" name="LTETE"> F  </i>
   <i type="logical" name="LTRIPLET"> F  </i>
   <i type="logical" name="LFXCEPS"> F  </i>
   <i type="logical" name="LFXHEG"> F  </i>
   <i type="int" name="NATURALO">     2</i>
   <i type="logical" name="LHOLEGF"> F  </i>
   <i type="logical" name="L2ORDER"> F  </i>
   <i type="logical" name="LDMP1"> F  </i>
   <i type="logical" name="LMP2LT"> F  </i>
   <i type="logical" name="LSMP2LT"> F  </i>
   <i type="logical" name="LGWLF"> F  </i>
   <i name="ENCUTGW">     -1.60000002</i>
   <i name="ENCUTGWSOFT">     -1.60000002</i>
   <i name="ENCUTLF">     -1.00000000</i>
   <i type="logical" name="LESF_SPLINES"> F  </i>
   <i type="int" name="LMAXMP2">    -1</i>
   <i name="SCISSOR">      0.00000000</i>
   <i type="int" name="NOMEGA">     0</i>
   <i type="int" name="NOMEGAR">     0</i>
   <i type="int" name="NBANDSGW">    -1</i>
   <i type="int" name="NBANDSO">    -1</i>
   <i type="int" name="NBANDSV">    -1</i>
   <i type="int" name="NELMGW">     1</i>
   <i type="int" name="NELMHF">     1</i>
   <i type="int" name="DIM">     3</i>
   <i type="int" name="IESPILON">     4</i>
   <i type="int" name="ANTIRES">     0</i>
   <i name="OMEGAMAX">    -30.00000000</i>
   <i name="OMEGAMIN">    -30.00000000</i>
   <i name="OMEGATL">   -200.00000000</i>
   <i type="int" name="OMEGAGRID">     0</i>
   <i name="CSHIFT">     -0.10000000</i>
   <i type="logical" name="LSELFENERGY"> F  </i>
   <i type="logical" name="LSPECTRAL"> F  </i>
   <i type="logical" name="LSPECTRALGW"> F  </i>
   <i type="logical" name="LSINGLES"> F  </i>
   <i type="logical" name="LFERMIGW"> F  </i>
   <i type="logical" name="ODDONLYGW"> F  </i>
   <i type="logical" name="EVENONLYGW"> F  </i>
   <i type="int" name="NKREDLFX">     1</i>
   <i type="int" name="NKREDLFY">     1</i>
   <i type="int" name="NKREDLFZ">     1</i>
   <i type="int" name="MAXMEM">  2800</i>
   <i type="int" name="TELESCOPE">     0</i>
   <i type="int" name="NTAUPAR">    -1</i>
   <i type="int" name="NOMEGAPAR">    -1</i>
   <i name="DAMP_NEWTON">      0.80000001</i>
   <i name="LAMBDA">      1.00000000</i>
  </separator>
  <separator name="External order field" >
   <i name="OFIELD_KAPPA">      0.00000000</i>
   <v name="OFIELD_K">      0.00000000      0.00000000      0.00000000</v>
   <i name="OFIELD_Q6_NEAR">      0.00000000</i>
   <i name="OFIELD_Q6_FAR">      0.00000000</i>
   <i name="OFIELD_A">      0.00000000</i>
  </separator>
  <separator name="optional k-points parameters" >
   <i type="int" name="KPOINTS_OPT_MODE">     1</i>
   <i type="logical" name="LKPOINTS_OPT"> F  </i>
  </separator>
  <separator name="solvation model" >
   <i type="logical" name="LSOL"> F  </i>
  </separator>
 </parameters>
 <atominfo>
  <atoms>       8 </atoms>
  <types>       1 </types>
  <array name="atoms" >
   <dimension dim="1">ion</dimension>
   <field type="string">element</field>
   <field type="int">atomtype</field>
   <set>
    <rc><c>Si</c><c>   1</c></rc>
    <rc><c>Si</c><c>   1</c></rc>
    <rc><c>Si</c><c>   1</c></rc>
    <rc><c>Si</c><c>   1</c></rc>
    <rc><c>Si</c><c>   1</c></rc>
    <rc><c>Si</c><c>   1</c></rc>
    <rc><c>Si</c><c>   1</c></rc>
    <rc><c>Si</c><c>   1</c></rc>
   </set>
  </array>
  <array name="atomtypes" >
   <dimension dim="1">type</dimension>
   <field type="int">atomspertype</field>
   <field type="string">element</field>
   <field>mass</field>
   <field>valence</field>
   <field type="string">pseudopotential</field>
   <set>
    <rc><c>   8</c><c>Si</c><c>     28.08500000</c><c>      4.00000000</c><c>  PAW_PBE Si 05Jan2001                  </c></rc>
   </set>
  </array>
 </atominfo>
 <structure name="initialpos" >
  <crystal>
   <varray name="basis" >
    <v>       5.46945757       0.00000000       0.00000000 </v>
    <v>       0.00000000       5.46945757       0.00000000 </v>
    <v>       0.00000000       0.00000000       5.46945757 </v>
   </varray>
   <i name="volume">    163.61863769 </i>
   <varray name="rec_basis" >
    <v>       0.18283349      -0.00000000       0.00000000 </v>
    <v>       0.00000000       0.18283349       0.00000000 </v>
    <v>      -0.00000000      -0.00000000       0.18283349 </v>
   </varray>
  </crystal>
  <varray name="positions" >
   <v>       0.00000000       0.00000000       0.00000000 </v>
   <v>       0.00000000       0.50000000       0.50000000 </v>
   <v>       0.50000000       0.50000000       0.00000000 </v>
   <v>       0.50000000       0.00000000       0.50000000 </v>
   <v>       0.75000000       0.25000000       0.75000000 </v>
   <v>       0.25000000       0.25000000       0.25000000 </v>
   <v>       0.25000000       0.75000000       0.75000000 </v>
   <v>       0.75000000       0.75000000       0.25000000 </v>
  </varray>
 </structure>
 <calculation>
  <scstep>
   <time name="dav">   71.54   11.27</time>
   <time name="total">   71.84   11.32</time>
   <energy>
    <i name="alphaZ">     13.16745086 </i>
    <i name="ewald">   -907.65855257 </i>
    <i name="hartreedc">    -60.77922769 </i>
    <i name="XCdc">    -72.24088582 </i>
    <i name="pawpsdc">   3321.58534086 </i>
    <i name="pawaedc">  -3181.66147787 </i>
    <i name="eentropy">     -0.00096998 </i>
    <i name="bandstr">     26.29710085 </i>
    <i name="atom">    824.53081094 </i>
    <i name="e_fr_energy">    -36.76041042 </i>
    <i name="e_wo_entrp">    -36.75944044 </i>
    <i name="e_0_energy">    -36.75992543 </i>
   </energy>
  </scstep>
  <scstep>
   <time name="dav">   73.39   11.08</time>
   <time name="total">   73.41   11.09</time>
   <energy>
    <i name="e_fr_energy">    -40.67844733 </i>
    <i name="e_wo_entrp">    -40.67844733 </i>
    <i name="e_0_energy">    -40.67844733 </i>
   </energy>
  </scstep>
  <scstep>
   <time name="dav">   71.77   10.83</time>
   <time name="total">   71.79   10.83</time>
   <energy>
    <i name="e_fr_energy">    -40.84094751 </i>
    <i name="e_wo_entrp">    -40.84094751 </i>
    <i name="e_0_energy">    -40.84094751 </i>
   </energy>
  </scstep>
  <scstep>
   <time name="dav">   68.13   10.28</time>
   <time name="total">   68.15   10.28</time>
   <energy>
    <i name="e_fr_energy">    -40.84271154 </i>
    <i name="e_wo_entrp">    -40.84271154 </i>
    <i name="e_0_energy">    -40.84271154 </i>
   </energy>
  </scstep>
  <scstep>
   <time name="dav">   70.36   10.63</time>
   <time name="total">   70.38   10.64</time>
   <energy>
    <i name="e_fr_energy">    -40.84274032 </i>
    <i name="e_wo_entrp">    -40.84274032 </i>
    <i name="e_0_energy">    -40.84274032 </i>
   </energy>
  </scstep>
  <scstep>
   <time name="dav">   67.31   10.22</time>
   <time name="total">   67.33   10.22</time>
   <energy>
    <i name="alphaZ">     13.16745086 </i>
    <i name="ewald">   -907.65855257 </i>
    <i name="hartreedc">    -60.77922769 </i>
    <i name="XCdc">    -72.24088582 </i>
    <i name="pawpsdc">   3321.58534086 </i>
    <i name="pawaedc">  -3181.66147787 </i>
    <i name="eentropy">     -0.00000000 </i>
    <i name="bandstr">     22.21380036 </i>
    <i name="atom">    824.53081094 </i>
    <i name="e_fr_energy">    -40.84274093 </i>
    <i name="e_wo_entrp">    -40.84274093 </i>
    <i name="e_0_energy">    -40.84274093 </i>
   </energy>
  </scstep>
  <structure>
   <crystal>
    <varray name="basis" >
     <v>       5.46945757       0.00000000       0.00000000 </v>
     <v>       0.00000000       5.46945757       0.00000000 </v>
     <v>       0.00000000       0.00000000       5.46945757 </v>
    </varray>
    <i name="volume">    163.61863769 </i>
    <varray name="rec_basis" >
     <v>       0.18283349      -0.00000000       0.00000000 </v>
     <v>       0.00000000       0.18283349       0.00000000 </v>
     <v>      -0.00000000      -0.00000000       0.18283349 </v>
    </varray>
   </crystal>
   <varray name="positions" >
    <v>       0.00000000       0.00000000       0.00000000 </v>
    <v>       0.00000000       0.50000000       0.50000000 </v>
    <v>       0.50000000       0.50000000       0.00000000 </v>
    <v>       0.50000000       0.00000000       0.50000000 </v>
    <v>       0.75000000       0.25000000       0.75000000 </v>
    <v>       0.25000000       0.25000000       0.25000000 </v>
    <v>       0.25000000       0.75000000       0.75000000 </v>
    <v>       0.75000000       0.75000000       0.25000000 </v>
   </varray>
  </structure>
  <varray name="forces" >
   <v>       0.00000000       0.00000000       0.00000000 </v>
   <v>       0.00000000       0.00000000       0.00000000 </v>
   <v>       0.00000000       0.00000000      -0.00000000 </v>
   <v>      -0.00000000       0.00000000       0.00000000 </v>
   <v>      -0.00000000       0.00000000      -0.00000000 </v>
   <v>       0.00000000      -0.00000000       0.00000000 </v>
   <v>      -0.00000000      -0.00000000       0.00000000 </v>
   <v>      -0.00000000      -0.00000000      -0.00000000 </v>
  </varray>
  <varray name="stress" >
   <v>      30.06070607       0.00000000       0.00000000 </v>
   <v>       0.00000000      30.06070607       0.00000000 </v>
   <v>       0.00000000       0.00000000      30.06070607 </v>
  </varray>
  <energy>
   <i name="e_fr_energy">    -40.84274093 </i>
   <i name="e_wo_entrp">    -40.84274093 </i>
   <i name="e_0_energy">    -40.84274093 </i>
  </energy>
  <time name="totalsc">  436.40   66.81</time>
  <eigenvalues>
   <array>
    <dimension dim="1">band</dimension>
    <dimension dim="2">kpoint</dimension>
    <dimension dim="3">spin</dimension>
    <field>eigene</field>
    <field>occ</field>
    <set>
     <set comment="spin 1">
      <set comment="kpoint 1">
       <r>   -6.1980    1.0000 </r>
       <r>   -2.1307    1.0000 </r>
       <r>   -2.1307    1.0000 </r>
       <r>   -2.1307    1.0000 </r>
       <r>   -2.1307    1.0000 </r>
       <r>   -2.1307    1.0000 </r>
       <r>   -2.1307    1.0000 </r>
       <r>    2.8209    1.0000 </r>
       <r>    2.8209    1.0000 </r>
       <r>    2.8209    1.0000 </r>
       <r>    2.8209    1.0000 </r>
       <r>    2.8209    1.0000 </r>
       <r>    2.8209    1.0000 </r>
       <r>    5.6144    1.0000 </r>
       <r>    5.6144    1.0000 </r>
       <r>    5.6144    1.0000 </r>
       <r>    6.3658    0.0000 </r>
       <r>    6.3658    0.0000 </r>
       <r>    6.3658    0.0000 </r>
       <r>    6.3658    0.0000 </r>
       <r>    6.3658    0.0000 </r>
       <r>    6.3658    0.0000 </r>
       <r>    8.1703    0.0000 </r>
       <r>    8.1703    0.0000 </r>
       <r>    8.1703    0.0000 </r>
       <r>    8.7440    0.0000 </r>
       <r>   13.3223    0.0000 </r>
       <r>   13.3223    0.0000 </r>
       <r>   13.4899    0.0000 </r>
       <r>   15.5479    0.0000 </r>
       <r>   15.5491    0.0000 </r>
       <r>   15.5507    0.0000 </r>
      </set>
      <set comment="kpoint 2">
       <r>   -6.1920    1.0000 </r>
       <r>   -2.3276    1.0000 </r>
       <r>   -2.3276    1.0000 </r>
       <r>   -2.1334    1.0000 </r>
       <r>   -2.1243    1.0000 </r>
       <r>   -1.9284    1.0000 </r>
       <r>   -1.9284    1.0000 </r>
       <r>    2.7810    1.0000 </r>
       <r>    2.8143    1.0000 </r>
       <r>    2.8143    1.0000 </r>
       <r>    2.8152    1.0000 </r>
       <r>    2.8152    1.0000 </r>
       <r>    2.8257    1.0000 </r>
       <r>    5.5491    1.0000 </r>
       <r>    5.5888    1.0000 </r>
       <r>    5.6118    1.0000 </r>
       <r>    6.3395    0.0000 </r>
       <r>    6.3395    0.0000 </r>
       <r>    6.3713    0.0000 </r>
       <r>    6.4257    0.0000 </r>
       <r>    6.4331    0.0000 </r>
       <r>    6.4331    0.0000 </r>
       <r>    8.1764    0.0000 </r>
       <r>    8.1823    0.0000 </r>
       <r>    8.2007    0.0000 </r>
       <r>    8.7881    0.0000 </r>
       <r>   13.2871    0.0000 </r>
       <r>   13.3148    0.0000 </r>
       <r>   13.5166    0.0000 </r>
       <r>   15.4521    0.0000 </r>
       <r>   15.4680    0.0000 </r>
       <r>   15.4911    0.0000 </r>
      </set>
      <set comment="kpoint 3">
       <r>   -6.1742    1.0000 </r>
       <r>   -2.5178    1.0000 </r>
       <r>   -2.5178    1.0000 </r>
       <r>   -2.1416    1.0000 </r>
       <r>   -2.1049    1.0000 </r>
       <r>   -1.7221    1.0000 </r>
       <r>   -1.7221    1.0000 </r>
       <r>    2.6697    1.0000 </r>
       <r>    2.7933    1.0000 </r>
       <r>    2.7933    1.0000 </r>
       <r>    2.8003    1.0000 </r>
       <r>    2.8003    1.0000 </r>
       <r>    2.8400    1.0000 </r>
       <r>    5.3701    1.0000 </r>
       <r>    5.5138    1.0000 </r>
       <r>    5.6038    1.0000 </r>
       <r>    6.3549    0.0000 </r>
       <r>    6.3549    0.0000 </r>
       <r>    6.3877    0.0000 </r>
       <r>    6.5395    0.0000 </r>
       <r>    6.5395    0.0000 </r>
       <r>    6.5971    0.0000 </r>
       <r>    8.1948    0.0000 </r>
       <r>    8.2172    0.0000 </r>
       <r>    8.2664    0.0000 </r>
       <r>    8.9280    0.0000 </r>
       <r>   13.1884    0.0000 </r>
       <r>   13.2932    0.0000 </r>
       <r>   13.5954    0.0000 </r>
       <r>   15.1324    0.0000 </r>
       <r>   15.1890    0.0000 </r>
       <r>   15.3067    0.0000 </r>
      </set>
      <set comment="kpoint 4">
       <r>   -6.1445    1.0000 </r>
       <r>   -2.7002    1.0000 </r>
       <r>   -2.7002    1.0000 </r>
       <r>   -2.1563    1.0000 </r>
       <r>   -2.0725    1.0000 </r>
       <r>   -1.5138    1.0000 </r>
       <r>   -1.5138    1.0000 </r>
       <r>    2.5073    1.0000 </r>
       <r>    2.7579    1.0000 </r>
       <r>    2.7579    1.0000 </r>
       <r>    2.7809    1.0000 </r>
       <r>    2.7809    1.0000 </r>
       <r>    2.8638    1.0000 </r>
       <r>    5.1132    1.0000 </r>
       <r>    5.3949    1.0000 </r>
       <r>    5.5901    1.0000 </r>
       <r>    6.4112    0.0000 </r>
       <r>    6.4112    0.0000 </r>
       <r>    6.4151    0.0000 </r>
       <r>    6.6819    0.0000 </r>
       <r>    6.6819    0.0000 </r>
       <r>    6.8607    0.0000 </r>
       <r>    8.2254    0.0000 </r>
       <r>    8.2723    0.0000 </r>
       <r>    8.3298    0.0000 </r>
       <r>    9.1637    0.0000 </r>
       <r>   13.0432    0.0000 </r>
       <r>   13.2602    0.0000 </r>
       <r>   13.7231    0.0000 </r>
       <r>   14.6947    0.0000 </r>
       <r>   14.7117    0.0000 </r>
       <r>   15.1061    0.0000 </r>
      </set>
      <set comment="kpoint 5">
       <r>   -6.1029    1.0000 </r>
       <r>   -2.8742    1.0000 </r>
       <r>   -2.8742    1.0000 </r>
       <r>   -2.1789    1.0000 </r>
       <r>   -2.0273    1.0000 </r>
       <r>   -1.3058    1.0000 </r>
       <r>   -1.3058    1.0000 </r>
       <r>    2.3163    1.0000 </r>
       <r>    2.7094    1.0000 </r>
       <r>    2.7094    1.0000 </r>
       <r>    2.7621    1.0000 </r>
       <r>    2.7621    1.0000 </r>
       <r>    2.8969    1.0000 </r>
       <r>    4.8098    1.0000 </r>
       <r>    5.2391    1.0000 </r>
       <r>    5.5703    1.0000 </r>
       <r>    6.4533    0.0000 </r>
       <r>    6.5062    0.0000 </r>
       <r>    6.5062    0.0000 </r>
       <r>    6.8570    0.0000 </r>
       <r>    6.8570    0.0000 </r>
       <r>    7.1953    0.0000 </r>
       <r>    8.2683    0.0000 </r>
       <r>    8.3441    0.0000 </r>
       <r>    8.3809    0.0000 </r>
       <r>    9.4688    0.0000 </r>
       <r>   12.8703    0.0000 </r>
       <r>   13.2211    0.0000 </r>
       <r>   13.8943    0.0000 </r>
       <r>   14.1976    0.0000 </r>
       <r>   14.1984    0.0000 </r>
       <r>   14.8258    0.0000 </r>
      </set>
      <set comment="kpoint 6">
       <r>   -6.0496    1.0000 </r>
       <r>   -3.0390    1.0000 </r>
       <r>   -3.0390    1.0000 </r>
       <r>   -2.2116    1.0000 </r>
       <r>   -1.9691    1.0000 </r>
       <r>   -1.1008    1.0000 </r>
       <r>   -1.1008    1.0000 </r>
       <r>    2.1158    1.0000 </r>
       <r>    2.6502    1.0000 </r>
       <r>    2.6502    1.0000 </r>
       <r>    2.7498    1.0000 </r>
       <r>    2.7498    1.0000 </r>
       <r>    2.9393    1.0000 </r>
       <r>    4.4812    1.0000 </r>
       <r>    5.0540    1.0000 </r>
       <r>    5.5439    1.0000 </r>
       <r>    6.5022    0.0000 </r>
       <r>    6.6369    0.0000 </r>
       <r>    6.6369    0.0000 </r>
       <r>    7.0616    0.0000 </r>
       <r>    7.0616    0.0000 </r>
       <r>    7.5834    0.0000 </r>
       <r>    8.3235    0.0000 </r>
       <r>    8.4244    0.0000 </r>
       <r>    8.4296    0.0000 </r>
       <r>    9.8102    0.0000 </r>
       <r>   12.6858    0.0000 </r>
       <r>   13.1850    0.0000 </r>
       <r>   13.6734    0.0000 </r>
       <r>   13.6737    0.0000 </r>
       <r>   14.1025    0.0000 </r>
       <r>   14.5048    0.0000 </r>
      </set>
      <set comment="kpoint 7">
       <r>   -5.9847    1.0000 </r>
       <r>   -3.1940    1.0000 </r>
       <r>   -3.1940    1.0000 </r>
       <r>   -2.2567    1.0000 </r>
       <r>   -1.8981    1.0000 </r>
       <r>   -0.9023    1.0000 </r>
       <r>   -0.9023    1.0000 </r>
       <r>    1.9208    1.0000 </r>
       <r>    2.5831    1.0000 </r>
       <r>    2.5831    1.0000 </r>
       <r>    2.7495    1.0000 </r>
       <r>    2.7495    1.0000 </r>
       <r>    2.9908    1.0000 </r>
       <r>    4.1402    1.0000 </r>
       <r>    4.8467    1.0000 </r>
       <r>    5.5101    1.0000 </r>
       <r>    6.5615    0.0000 </r>
       <r>    6.7995    0.0000 </r>
       <r>    6.7995    0.0000 </r>
       <r>    7.2926    0.0000 </r>
       <r>    7.2926    0.0000 </r>
       <r>    8.0125    0.0000 </r>
       <r>    8.3908    0.0000 </r>
       <r>    8.4644    0.0000 </r>
       <r>    8.5266    0.0000 </r>
       <r>   10.1585    0.0000 </r>
       <r>   12.5019    0.0000 </r>
       <r>   13.1396    0.0000 </r>
       <r>   13.1396    0.0000 </r>
       <r>   13.1661    0.0000 </r>
       <r>   14.1416    0.0000 </r>
       <r>   14.3396    0.0000 </r>
      </set>
      <set comment="kpoint 8">
       <r>   -5.9082    1.0000 </r>
       <r>   -3.3389    1.0000 </r>
       <r>   -3.3389    1.0000 </r>
       <r>   -2.3167    1.0000 </r>
       <r>   -1.8142    1.0000 </r>
       <r>   -0.7139    1.0000 </r>
       <r>   -0.7139    1.0000 </r>
       <r>    1.7422    1.0000 </r>
       <r>    2.5112    1.0000 </r>
       <r>    2.5112    1.0000 </r>
       <r>    2.7668    1.0000 </r>
       <r>    2.7668    1.0000 </r>
       <r>    3.0512    1.0000 </r>
       <r>    3.7947    1.0000 </r>
       <r>    4.6232    1.0000 </r>
       <r>    5.4683    1.0000 </r>
       <r>    6.6312    0.0000 </r>
       <r>    6.9904    0.0000 </r>
       <r>    6.9904    0.0000 </r>
       <r>    7.5472    0.0000 </r>
       <r>    7.5472    0.0000 </r>
       <r>    8.4704    0.0000 </r>
       <r>    8.4734    0.0000 </r>
       <r>    8.5023    0.0000 </r>
       <r>    8.6340    0.0000 </r>
       <r>   10.4862    0.0000 </r>
       <r>   12.3274    0.0000 </r>
       <r>   12.6047    0.0000 </r>
       <r>   12.6047    0.0000 </r>
       <r>   13.1864    0.0000 </r>
       <r>   13.8157    0.0000 </r>
       <r>   14.1560    0.0000 </r>
      </set>
      <set comment="kpoint 9">
       <r>   -5.8203    1.0000 </r>
       <r>   -3.4733    1.0000 </r>
       <r>   -3.4733    1.0000 </r>
       <r>   -2.3939    1.0000 </r>
       <r>   -1.7175    1.0000 </r>
       <r>   -0.5395    1.0000 </r>
       <r>   -0.5395    1.0000 </r>
       <r>    1.5882    1.0000 </r>
       <r>    2.4372    1.0000 </r>
       <r>    2.4372    1.0000 </r>
       <r>    2.8071    1.0000 </r>
       <r>    2.8071    1.0000 </r>
       <r>    3.1203    1.0000 </r>
       <r>    3.4498    1.0000 </r>
       <r>    4.3888    1.0000 </r>
       <r>    5.4178    1.0000 </r>
       <r>    6.7109    0.0000 </r>
       <r>    7.2062    0.0000 </r>
       <r>    7.2062    0.0000 </r>
       <r>    7.8231    0.0000 </r>
       <r>    7.8231    0.0000 </r>
       <r>    8.5376    0.0000 </r>
       <r>    8.5621    0.0000 </r>
       <r>    8.7510    0.0000 </r>
       <r>    8.9596    0.0000 </r>
       <r>   10.7646    0.0000 </r>
       <r>   12.0746    0.0000 </r>
       <r>   12.0746    0.0000 </r>
       <r>   12.1686    0.0000 </r>
       <r>   13.2723    0.0000 </r>
       <r>   13.4792    0.0000 </r>
       <r>   13.8990    0.0000 </r>
      </set>
      <set comment="kpoint 10">
       <r>   -5.7212    1.0000 </r>
       <r>   -3.5968    1.0000 </r>
       <r>   -3.5968    1.0000 </r>
       <r>   -2.4901    1.0000 </r>
       <r>   -1.6080    1.0000 </r>
       <r>   -0.3830    1.0000 </r>
       <r>   -0.3830    1.0000 </r>
       <r>    1.4644    1.0000 </r>
       <r>    2.3635    1.0000 </r>
       <r>    2.3635    1.0000 </r>
       <r>    2.8744    1.0000 </r>
       <r>    2.8744    1.0000 </r>
       <r>    3.1085    1.0000 </r>
       <r>    3.1976    1.0000 </r>
       <r>    4.1476    1.0000 </r>
       <r>    5.3581    1.0000 </r>
       <r>    6.8001    0.0000 </r>
       <r>    7.4438    0.0000 </r>
       <r>    7.4438    0.0000 </r>
       <r>    8.1184    0.0000 </r>
       <r>    8.1184    0.0000 </r>
       <r>    8.5684    0.0000 </r>
       <r>    8.6660    0.0000 </r>
       <r>    8.8775    0.0000 </r>
       <r>    9.4662    0.0000 </r>
       <r>   10.9699    0.0000 </r>
       <r>   11.5538    0.0000 </r>
       <r>   11.5538    0.0000 </r>
       <r>   12.0301    0.0000 </r>
       <r>   13.1553    0.0000 </r>
       <r>   13.4554    0.0000 </r>
       <r>   13.6413    0.0000 </r>
      </set>
      <set comment="kpoint 11">
       <r>   -5.6112    1.0000 </r>
       <r>   -3.7092    1.0000 </r>
       <r>   -3.7092    1.0000 </r>
       <r>   -2.6058    1.0000 </r>
       <r>   -1.4858    1.0000 </r>
       <r>   -0.2472    1.0000 </r>
       <r>   -0.2472    1.0000 </r>
       <r>    1.3745    1.0000 </r>
       <r>    2.2921    1.0000 </r>
       <r>    2.2921    1.0000 </r>
       <r>    2.7732    1.0000 </r>
       <r>    2.9716    1.0000 </r>
       <r>    2.9716    1.0000 </r>
       <r>    3.2830    1.0000 </r>
       <r>    3.9034    1.0000 </r>
       <r>    5.2889    1.0000 </r>
       <r>    6.8986    0.0000 </r>
       <r>    7.7002    0.0000 </r>
       <r>    7.7002    0.0000 </r>
       <r>    8.4312    0.0000 </r>
       <r>    8.4312    0.0000 </r>
       <r>    8.5919    0.0000 </r>
       <r>    8.7820    0.0000 </r>
       <r>    9.0135    0.0000 </r>
       <r>    9.9884    0.0000 </r>
       <r>   11.0460    0.0000 </r>
       <r>   11.0460    0.0000 </r>
       <r>   11.0959    0.0000 </r>
       <r>   11.9149    0.0000 </r>
       <r>   12.8371    0.0000 </r>
       <r>   13.3647    0.0000 </r>
       <r>   13.3790    0.0000 </r>
      </set>
      <set comment="kpoint 12">
       <r>   -5.4905    1.0000 </r>
       <r>   -3.8102    1.0000 </r>
       <r>   -3.8102    1.0000 </r>
       <r>   -2.7406    1.0000 </r>
       <r>   -1.3509    1.0000 </r>
       <r>   -0.1336    1.0000 </r>
       <r>   -0.1336    1.0000 </r>
       <r>    1.3197    1.0000 </r>
       <r>    2.2249    1.0000 </r>
       <r>    2.2249    1.0000 </r>
       <r>    2.4451    1.0000 </r>
       <r>    3.0991    1.0000 </r>
       <r>    3.0991    1.0000 </r>
       <r>    3.3758    1.0000 </r>
       <r>    3.6590    1.0000 </r>
       <r>    5.2100    1.0000 </r>
       <r>    7.0058    0.0000 </r>
       <r>    7.9732    0.0000 </r>
       <r>    7.9732    0.0000 </r>
       <r>    8.6045    0.0000 </r>
       <r>    8.7599    0.0000 </r>
       <r>    8.7599    0.0000 </r>
       <r>    8.9101    0.0000 </r>
       <r>    9.1593    0.0000 </r>
       <r>   10.5208    0.0000 </r>
       <r>   10.5549    0.0000 </r>
       <r>   10.5549    0.0000 </r>
       <r>   11.1588    0.0000 </r>
       <r>   11.8252    0.0000 </r>
       <r>   12.5239    0.0000 </r>
       <r>   13.0787    0.0000 </r>
       <r>   13.0951    0.0000 </r>
      </set>
      <set comment="kpoint 13">
       <r>   -5.3593    1.0000 </r>
       <r>   -3.8998    1.0000 </r>
       <r>   -3.8998    1.0000 </r>
       <r>   -2.8927    1.0000 </r>
       <r>   -1.2034    1.0000 </r>
       <r>   -0.0422    1.0000 </r>
       <r>   -0.0422    1.0000 </r>
       <r>    1.2998    1.0000 </r>
       <r>    2.1256    1.0000 </r>
       <r>    2.1630    1.0000 </r>
       <r>    2.1630    1.0000 </r>
       <r>    3.2547    1.0000 </r>
       <r>    3.2547    1.0000 </r>
       <r>    3.4169    1.0000 </r>
       <r>    3.4757    1.0000 </r>
       <r>    5.1217    1.0000 </r>
       <r>    7.1209    0.0000 </r>
       <r>    8.2604    0.0000 </r>
       <r>    8.2604    0.0000 </r>
       <r>    8.6025    0.0000 </r>
       <r>    9.0502    0.0000 </r>
       <r>    9.1021    0.0000 </r>
       <r>    9.1021    0.0000 </r>
       <r>    9.3151    0.0000 </r>
       <r>   10.0854    0.0000 </r>
       <r>   10.0854    0.0000 </r>
       <r>   11.0525    0.0000 </r>
       <r>   11.1852    0.0000 </r>
       <r>   11.7623    0.0000 </r>
       <r>   12.2197    0.0000 </r>
       <r>   12.7592    0.0000 </r>
       <r>   12.8087    0.0000 </r>
      </set>
      <set comment="kpoint 14">
       <r>   -5.2182    1.0000 </r>
       <r>   -3.9776    1.0000 </r>
       <r>   -3.9776    1.0000 </r>
       <r>   -3.0594    1.0000 </r>
       <r>   -1.0434    1.0000 </r>
       <r>    0.0287    1.0000 </r>
       <r>    0.0287    1.0000 </r>
       <r>    1.3132    1.0000 </r>
       <r>    1.8153    1.0000 </r>
       <r>    2.1076    1.0000 </r>
       <r>    2.1076    1.0000 </r>
       <r>    3.1794    1.0000 </r>
       <r>    3.4335    1.0000 </r>
       <r>    3.4335    1.0000 </r>
       <r>    3.5821    1.0000 </r>
       <r>    5.0245    1.0000 </r>
       <r>    7.2432    0.0000 </r>
       <r>    8.5597    0.0000 </r>
       <r>    8.5597    0.0000 </r>
       <r>    8.5823    0.0000 </r>
       <r>    9.2022    0.0000 </r>
       <r>    9.4399    0.0000 </r>
       <r>    9.4399    0.0000 </r>
       <r>    9.4810    0.0000 </r>
       <r>    9.6591    0.0000 </r>
       <r>    9.6591    0.0000 </r>
       <r>   11.1998    0.0000 </r>
       <r>   11.5438    0.0000 </r>
       <r>   11.7269    0.0000 </r>
       <r>   11.9228    0.0000 </r>
       <r>   12.4950    0.0000 </r>
       <r>   12.5177    0.0000 </r>
      </set>
      <set comment="kpoint 15">
       <r>   -5.0675    1.0000 </r>
       <r>   -4.0437    1.0000 </r>
       <r>   -4.0437    1.0000 </r>
       <r>   -3.2376    1.0000 </r>
       <r>   -0.8708    1.0000 </r>
       <r>    0.0817    1.0000 </r>
       <r>    0.0817    1.0000 </r>
       <r>    1.3573    1.0000 </r>
       <r>    1.5149    1.0000 </r>
       <r>    2.0594    1.0000 </r>
       <r>    2.0594    1.0000 </r>
       <r>    2.9483    1.0000 </r>
       <r>    3.6272    1.0000 </r>
       <r>    3.6272    1.0000 </r>
       <r>    3.6943    1.0000 </r>
       <r>    4.9192    1.0000 </r>
       <r>    7.3717    0.0000 </r>
       <r>    8.5414    0.0000 </r>
       <r>    8.8693    0.0000 </r>
       <r>    8.8693    0.0000 </r>
       <r>    9.2111    0.0000 </r>
       <r>    9.2111    0.0000 </r>
       <r>    9.3662    0.0000 </r>
       <r>    9.6574    0.0000 </r>
       <r>    9.8436    0.0000 </r>
       <r>    9.8436    0.0000 </r>
       <r>   11.2206    0.0000 </r>
       <r>   11.6367    0.0000 </r>
       <r>   11.7190    0.0000 </r>
       <r>   11.7937    0.0000 </r>
       <r>   12.1861    0.0000 </r>
       <r>   12.1923    0.0000 </r>
      </set>
      <set comment="kpoint 16">
       <r>   -4.9078    1.0000 </r>
       <r>   -4.0979    1.0000 </r>
       <r>   -4.0979    1.0000 </r>
       <r>   -3.4240    1.0000 </r>
       <r>   -0.6859    1.0000 </r>
       <r>    0.1199    1.0000 </r>
       <r>    0.1199    1.0000 </r>
       <r>    1.2249    1.0000 </r>
       <r>    1.4296    1.0000 </r>
       <r>    2.0193    1.0000 </r>
       <r>    2.0193    1.0000 </r>
       <r>    2.7253    1.0000 </r>
       <r>    3.8116    1.0000 </r>
       <r>    3.8246    1.0000 </r>
       <r>    3.8246    1.0000 </r>
       <r>    4.8068    1.0000 </r>
       <r>    7.5051    0.0000 </r>
       <r>    8.4788    0.0000 </r>
       <r>    8.8412    0.0000 </r>
       <r>    8.8412    0.0000 </r>
       <r>    9.1869    0.0000 </r>
       <r>    9.1869    0.0000 </r>
       <r>    9.5420    0.0000 </r>
       <r>    9.8442    0.0000 </r>
       <r>   10.2208    0.0000 </r>
       <r>   10.2208    0.0000 </r>
       <r>   11.2587    0.0000 </r>
       <r>   11.3606    0.0000 </r>
       <r>   11.6625    0.0000 </r>
       <r>   11.7383    0.0000 </r>
       <r>   11.8694    0.0000 </r>
       <r>   11.8698    0.0000 </r>
      </set>
      <set comment="kpoint 17">
       <r>   -4.7397    1.0000 </r>
       <r>   -4.1401    1.0000 </r>
       <r>   -4.1401    1.0000 </r>
       <r>   -3.6155    1.0000 </r>
       <r>   -0.4887    1.0000 </r>
       <r>    0.1462    1.0000 </r>
       <r>    0.1462    1.0000 </r>
       <r>    0.9457    1.0000 </r>
       <r>    1.5271    1.0000 </r>
       <r>    1.9876    1.0000 </r>
       <r>    1.9876    1.0000 </r>
       <r>    2.5120    1.0000 </r>
       <r>    3.9331    1.0000 </r>
       <r>    4.0111    1.0000 </r>
       <r>    4.0111    1.0000 </r>
       <r>    4.6885    1.0000 </r>
       <r>    7.6418    0.0000 </r>
       <r>    8.3955    0.0000 </r>
       <r>    8.5212    0.0000 </r>
       <r>    8.5212    0.0000 </r>
       <r>    9.5103    0.0000 </r>
       <r>    9.5103    0.0000 </r>
       <r>    9.7296    0.0000 </r>
       <r>   10.0417    0.0000 </r>
       <r>   10.6100    0.0000 </r>
       <r>   10.6100    0.0000 </r>
       <r>   11.0947    0.0000 </r>
       <r>   11.3203    0.0000 </r>
       <r>   11.4283    0.0000 </r>
       <r>   11.5470    0.0000 </r>
       <r>   11.5479    0.0000 </r>
       <r>   11.7847    0.0000 </r>
      </set>
      <set comment="kpoint 18">
       <r>   -4.5642    1.0000 </r>
       <r>   -4.1703    1.0000 </r>
       <r>   -4.1703    1.0000 </r>
       <r>   -3.8094    1.0000 </r>
       <r>   -0.2792    1.0000 </r>
       <r>    0.1632    1.0000 </r>
       <r>    0.1632    1.0000 </r>
       <r>    0.6776    1.0000 </r>
       <r>    1.6473    1.0000 </r>
       <r>    1.9647    1.0000 </r>
       <r>    1.9647    1.0000 </r>
       <r>    2.3101    1.0000 </r>
       <r>    4.0578    1.0000 </r>
       <r>    4.1680    1.0000 </r>
       <r>    4.1680    1.0000 </r>
       <r>    4.5658    1.0000 </r>
       <r>    7.7801    0.0000 </r>
       <r>    8.2702    0.0000 </r>
       <r>    8.2702    0.0000 </r>
       <r>    8.2940    0.0000 </r>
       <r>    9.8357    0.0000 </r>
       <r>    9.8357    0.0000 </r>
       <r>    9.9288    0.0000 </r>
       <r>   10.2497    0.0000 </r>
       <r>   10.8394    0.0000 </r>
       <r>   11.0052    0.0000 </r>
       <r>   11.0053    0.0000 </r>
       <r>   11.1798    0.0000 </r>
       <r>   11.2221    0.0000 </r>
       <r>   11.2222    0.0000 </r>
       <r>   11.4072    0.0000 </r>
       <r>   11.8687    0.0000 </r>
      </set>
      <set comment="kpoint 19">
       <r>   -4.3820    1.0000 </r>
       <r>   -4.1885    1.0000 </r>
       <r>   -4.1885    1.0000 </r>
       <r>   -4.0031    1.0000 </r>
       <r>   -0.0577    1.0000 </r>
       <r>    0.1726    1.0000 </r>
       <r>    0.1726    1.0000 </r>
       <r>    0.4208    1.0000 </r>
       <r>    1.7877    1.0000 </r>
       <r>    1.9509    1.0000 </r>
       <r>    1.9509    1.0000 </r>
       <r>    2.1209    1.0000 </r>
       <r>    4.1846    1.0000 </r>
       <r>    4.2744    1.0000 </r>
       <r>    4.2744    1.0000 </r>
       <r>    4.4399    1.0000 </r>
       <r>    7.9175    0.0000 </r>
       <r>    8.1078    0.0000 </r>
       <r>    8.1078    0.0000 </r>
       <r>    8.1780    0.0000 </r>
       <r>   10.1395    0.0000 </r>
       <r>   10.1525    0.0000 </r>
       <r>   10.1525    0.0000 </r>
       <r>   10.4681    0.0000 </r>
       <r>   10.5950    0.0000 </r>
       <r>   10.9057    0.0000 </r>
       <r>   10.9057    0.0000 </r>
       <r>   10.9345    0.0000 </r>
       <r>   11.3940    0.0000 </r>
       <r>   11.3949    0.0000 </r>
       <r>   11.5206    0.0000 </r>
       <r>   11.8186    0.0000 </r>
      </set>
      <set comment="kpoint 20">
       <r>   -4.1945    1.0000 </r>
       <r>   -4.1945    1.0000 </r>
       <r>   -4.1945    1.0000 </r>
       <r>   -4.1945    1.0000 </r>
       <r>    0.1757    1.0000 </r>
       <r>    0.1757    1.0000 </r>
       <r>    0.1757    1.0000 </r>
       <r>    0.1757    1.0000 </r>
       <r>    1.9462    1.0000 </r>
       <r>    1.9462    1.0000 </r>
       <r>    1.9462    1.0000 </r>
       <r>    1.9462    1.0000 </r>
       <r>    4.3124    1.0000 </r>
       <r>    4.3124    1.0000 </r>
       <r>    4.3124    1.0000 </r>
       <r>    4.3124    1.0000 </r>
       <r>    8.0512    0.0000 </r>
       <r>    8.0512    0.0000 </r>
       <r>    8.0512    0.0000 </r>
       <r>    8.0512    0.0000 </r>
       <r>   10.3616    0.0000 </r>
       <r>   10.3616    0.0000 </r>
       <r>   10.3616    0.0000 </r>
       <r>   10.3616    0.0000 </r>
       <r>   10.6967    0.0000 </r>
       <r>   10.6967    0.0000 </r>
       <r>   10.6967    0.0000 </r>
       <r>   10.6967    0.0000 </r>
       <r>   11.6535    0.0000 </r>
       <r>   11.6537    0.0000 </r>
       <r>   11.6548    0.0000 </r>
       <r>   11.6611    0.0000 </r>
      </set>
      <set comment="kpoint 21">
       <r>   -4.1945    1.0000 </r>
       <r>   -4.1945    1.0000 </r>
       <r>   -4.1945    1.0000 </r>
       <r>   -4.1945    1.0000 </r>
       <r>    0.1757    1.0000 </r>
       <r>    0.1757    1.0000 </r>
       <r>    0.1757    1.0000 </r>
       <r>    0.1757    1.0000 </r>
       <r>    1.9462    1.0000 </r>
       <r>    1.9462    1.0000 </r>
       <r>    1.9462    1.0000 </r>
       <r>    1.9462    1.0000 </r>
       <r>    4.3124    1.0000 </r>
       <r>    4.3124    1.0000 </r>
       <r>    4.3124    1.0000 </r>
       <r>    4.3124    1.0000 </r>
       <r>    8.0512    0.0000 </r>
       <r>    8.0512    0.0000 </r>
       <r>    8.0512    0.0000 </r>
       <r>    8.0512    0.0000 </r>
       <r>   10.3616    0.0000 </r>
       <r>   10.3616    0.0000 </r>
       <r>   10.3616    0.0000 </r>
       <r>   10.3616    0.0000 </r>
       <r>   10.6967    0.0000 </r>
       <r>   10.6967    0.0000 </r>
       <r>   10.6967    0.0000 </r>
       <r>   10.6967    0.0000 </r>
       <r>   11.6535    0.0000 </r>
       <r>   11.6535    0.0000 </r>
       <r>   11.6537    0.0000 </r>
       <r>   11.6556    0.0000 </r>
      </set>
      <set comment="kpoint 22">
       <r>   -4.2410    1.0000 </r>
       <r>   -4.2410    1.0000 </r>
       <r>   -4.1462    1.0000 </r>
       <r>   -4.1462    1.0000 </r>
       <r>    0.1116    1.0000 </r>
       <r>    0.1116    1.0000 </r>
       <r>    0.2311    1.0000 </r>
       <r>    0.2311    1.0000 </r>
       <r>    1.9108    1.0000 </r>
       <r>    1.9108    1.0000 </r>
       <r>    1.9944    1.0000 </r>
       <r>    1.9944    1.0000 </r>
       <r>    4.2783    1.0000 </r>
       <r>    4.2783    1.0000 </r>
       <r>    4.3421    1.0000 </r>
       <r>    4.3421    1.0000 </r>
       <r>    8.0221    0.0000 </r>
       <r>    8.0221    0.0000 </r>
       <r>    8.0873    0.0000 </r>
       <r>    8.0873    0.0000 </r>
       <r>   10.2795    0.0000 </r>
       <r>   10.2795    0.0000 </r>
       <r>   10.3931    0.0000 </r>
       <r>   10.3931    0.0000 </r>
       <r>   10.6450    0.0000 </r>
       <r>   10.6450    0.0000 </r>
       <r>   10.7607    0.0000 </r>
       <r>   10.7607    0.0000 </r>
       <r>   11.6078    0.0000 </r>
       <r>   11.6082    0.0000 </r>
       <r>   11.6809    0.0000 </r>
       <r>   11.6820    0.0000 </r>
      </set>
      <set comment="kpoint 23">
       <r>   -4.2856    1.0000 </r>
       <r>   -4.2856    1.0000 </r>
       <r>   -4.0963    1.0000 </r>
       <r>   -4.0963    1.0000 </r>
       <r>    0.0398    1.0000 </r>
       <r>    0.0398    1.0000 </r>
       <r>    0.2776    1.0000 </r>
       <r>    0.2776    1.0000 </r>
       <r>    1.8877    1.0000 </r>
       <r>    1.8877    1.0000 </r>
       <r>    2.0555    1.0000 </r>
       <r>    2.0555    1.0000 </r>
       <r>    4.2398    1.0000 </r>
       <r>    4.2398    1.0000 </r>
       <r>    4.3673    1.0000 </r>
       <r>    4.3673    1.0000 </r>
       <r>    8.0001    0.0000 </r>
       <r>    8.0001    0.0000 </r>
       <r>    8.1298    0.0000 </r>
       <r>    8.1298    0.0000 </r>
       <r>   10.1552    0.0000 </r>
       <r>   10.1552    0.0000 </r>
       <r>   10.3797    0.0000 </r>
       <r>   10.3797    0.0000 </r>
       <r>   10.6033    0.0000 </r>
       <r>   10.6033    0.0000 </r>
       <r>   10.8303    0.0000 </r>
       <r>   10.8303    0.0000 </r>
       <r>   11.5506    0.0000 </r>
       <r>   11.5513    0.0000 </r>
       <r>   11.6983    0.0000 </r>
       <r>   11.7022    0.0000 </r>
      </set>
      <set comment="kpoint 24">
       <r>   -4.3282    1.0000 </r>
       <r>   -4.3282    1.0000 </r>
       <r>   -4.0450    1.0000 </r>
       <r>   -4.0450    1.0000 </r>
       <r>   -0.0387    1.0000 </r>
       <r>   -0.0387    1.0000 </r>
       <r>    0.3153    1.0000 </r>
       <r>    0.3153    1.0000 </r>
       <r>    1.8758    1.0000 </r>
       <r>    1.8758    1.0000 </r>
       <r>    2.1290    1.0000 </r>
       <r>    2.1290    1.0000 </r>
       <r>    4.1974    1.0000 </r>
       <r>    4.1974    1.0000 </r>
       <r>    4.3877    1.0000 </r>
       <r>    4.3877    1.0000 </r>
       <r>    7.9857    0.0000 </r>
       <r>    7.9857    0.0000 </r>
       <r>    8.1779    0.0000 </r>
       <r>    8.1779    0.0000 </r>
       <r>   10.0032    0.0000 </r>
       <r>   10.0032    0.0000 </r>
       <r>   10.3330    0.0000 </r>
       <r>   10.3330    0.0000 </r>
       <r>   10.5652    0.0000 </r>
       <r>   10.5652    0.0000 </r>
       <r>   10.8979    0.0000 </r>
       <r>   10.8979    0.0000 </r>
       <r>   11.4928    0.0000 </r>
       <r>   11.4931    0.0000 </r>
       <r>   11.7181    0.0000 </r>
       <r>   11.7195    0.0000 </r>
      </set>
      <set comment="kpoint 25">
       <r>   -4.3685    1.0000 </r>
       <r>   -4.3685    1.0000 </r>
       <r>   -3.9924    1.0000 </r>
       <r>   -3.9924    1.0000 </r>
       <r>   -0.1224    1.0000 </r>
       <r>   -0.1224    1.0000 </r>
       <r>    0.3447    1.0000 </r>
       <r>    0.3447    1.0000 </r>
       <r>    1.8740    1.0000 </r>
       <r>    1.8740    1.0000 </r>
       <r>    2.2142    1.0000 </r>
       <r>    2.2142    1.0000 </r>
       <r>    4.1514    1.0000 </r>
       <r>    4.1514    1.0000 </r>
       <r>    4.4034    1.0000 </r>
       <r>    4.4034    1.0000 </r>
       <r>    7.9790    0.0000 </r>
       <r>    7.9790    0.0000 </r>
       <r>    8.2308    0.0000 </r>
       <r>    8.2308    0.0000 </r>
       <r>    9.8356    0.0000 </r>
       <r>    9.8356    0.0000 </r>
       <r>   10.2624    0.0000 </r>
       <r>   10.2624    0.0000 </r>
       <r>   10.5276    0.0000 </r>
       <r>   10.5276    0.0000 </r>
       <r>   10.9611    0.0000 </r>
       <r>   10.9611    0.0000 </r>
       <r>   11.4388    0.0000 </r>
       <r>   11.4390    0.0000 </r>
       <r>   11.7460    0.0000 </r>
       <r>   11.7467    0.0000 </r>
      </set>
      <set comment="kpoint 26">
       <r>   -4.4066    1.0000 </r>
       <r>   -4.4066    1.0000 </r>
       <r>   -3.9390    1.0000 </r>
       <r>   -3.9390    1.0000 </r>
       <r>   -0.2099    1.0000 </r>
       <r>   -0.2099    1.0000 </r>
       <r>    0.3667    1.0000 </r>
       <r>    0.3667    1.0000 </r>
       <r>    1.8810    1.0000 </r>
       <r>    1.8810    1.0000 </r>
       <r>    2.3097    1.0000 </r>
       <r>    2.3097    1.0000 </r>
       <r>    4.1022    1.0000 </r>
       <r>    4.1022    1.0000 </r>
       <r>    4.4144    1.0000 </r>
       <r>    4.4144    1.0000 </r>
       <r>    7.9799    0.0000 </r>
       <r>    7.9799    0.0000 </r>
       <r>    8.2871    0.0000 </r>
       <r>    8.2871    0.0000 </r>
       <r>    9.6607    0.0000 </r>
       <r>    9.6607    0.0000 </r>
       <r>   10.1753    0.0000 </r>
       <r>   10.1753    0.0000 </r>
       <r>   10.4894    0.0000 </r>
       <r>   10.4894    0.0000 </r>
       <r>   11.0199    0.0000 </r>
       <r>   11.0199    0.0000 </r>
       <r>   11.3895    0.0000 </r>
       <r>   11.3896    0.0000 </r>
       <r>   11.7805    0.0000 </r>
       <r>   11.7809    0.0000 </r>
      </set>
      <set comment="kpoint 27">
       <r>   -4.4424    1.0000 </r>
       <r>   -4.4424    1.0000 </r>
       <r>   -3.8849    1.0000 </r>
       <r>   -3.8849    1.0000 </r>
       <r>   -0.2997    1.0000 </r>
       <r>   -0.2997    1.0000 </r>
       <r>    0.3825    1.0000 </r>
       <r>    0.3825    1.0000 </r>
       <r>    1.8955    1.0000 </r>
       <r>    1.8955    1.0000 </r>
       <r>    2.4141    1.0000 </r>
       <r>    2.4141    1.0000 </r>
       <r>    4.0502    1.0000 </r>
       <r>    4.0502    1.0000 </r>
       <r>    4.4205    1.0000 </r>
       <r>    4.4205    1.0000 </r>
       <r>    7.9884    0.0000 </r>
       <r>    7.9884    0.0000 </r>
       <r>    8.3449    0.0000 </r>
       <r>    8.3449    0.0000 </r>
       <r>    9.4852    0.0000 </r>
       <r>    9.4852    0.0000 </r>
       <r>   10.0769    0.0000 </r>
       <r>   10.0769    0.0000 </r>
       <r>   10.4507    0.0000 </r>
       <r>   10.4507    0.0000 </r>
       <r>   11.0751    0.0000 </r>
       <r>   11.0751    0.0000 </r>
       <r>   11.3446    0.0000 </r>
       <r>   11.3447    0.0000 </r>
       <r>   11.8227    0.0000 </r>
       <r>   11.8229    0.0000 </r>
      </set>
      <set comment="kpoint 28">
       <r>   -4.4757    1.0000 </r>
       <r>   -4.4757    1.0000 </r>
       <r>   -3.8306    1.0000 </r>
       <r>   -3.8306    1.0000 </r>
       <r>   -0.3904    1.0000 </r>
       <r>   -0.3904    1.0000 </r>
       <r>    0.3930    1.0000 </r>
       <r>    0.3930    1.0000 </r>
       <r>    1.9162    1.0000 </r>
       <r>    1.9162    1.0000 </r>
       <r>    2.5258    1.0000 </r>
       <r>    2.5258    1.0000 </r>
       <r>    3.9962    1.0000 </r>
       <r>    3.9962    1.0000 </r>
       <r>    4.4218    1.0000 </r>
       <r>    4.4218    1.0000 </r>
       <r>    8.0044    0.0000 </r>
       <r>    8.0044    0.0000 </r>
       <r>    8.4010    0.0000 </r>
       <r>    8.4010    0.0000 </r>
       <r>    9.3153    0.0000 </r>
       <r>    9.3153    0.0000 </r>
       <r>    9.9714    0.0000 </r>
       <r>    9.9714    0.0000 </r>
       <r>   10.4117    0.0000 </r>
       <r>   10.4117    0.0000 </r>
       <r>   11.1271    0.0000 </r>
       <r>   11.1271    0.0000 </r>
       <r>   11.3036    0.0000 </r>
       <r>   11.3036    0.0000 </r>
       <r>   11.8703    0.0000 </r>
       <r>   11.8710    0.0000 </r>
      </set>
      <set comment="kpoint 29">
       <r>   -4.5066    1.0000 </r>
       <r>   -4.5066    1.0000 </r>
       <r>   -3.7765    1.0000 </r>
       <r>   -3.7765    1.0000 </r>
       <r>   -0.4807    1.0000 </r>
       <r>   -0.4807    1.0000 </r>
       <r>    0.3994    1.0000 </r>
       <r>    0.3994    1.0000 </r>
       <r>    1.9420    1.0000 </r>
       <r>    1.9420    1.0000 </r>
       <r>    2.6433    1.0000 </r>
       <r>    2.6433    1.0000 </r>
       <r>    3.9406    1.0000 </r>
       <r>    3.9406    1.0000 </r>
       <r>    4.4181    1.0000 </r>
       <r>    4.4181    1.0000 </r>
       <r>    8.0277    0.0000 </r>
       <r>    8.0277    0.0000 </r>
       <r>    8.4496    0.0000 </r>
       <r>    8.4496    0.0000 </r>
       <r>    9.1590    0.0000 </r>
       <r>    9.1590    0.0000 </r>
       <r>    9.8614    0.0000 </r>
       <r>    9.8614    0.0000 </r>
       <r>   10.3727    0.0000 </r>
       <r>   10.3727    0.0000 </r>
       <r>   11.1762    0.0000 </r>
       <r>   11.1762    0.0000 </r>
       <r>   11.2658    0.0000 </r>
       <r>   11.2658    0.0000 </r>
       <r>   11.9231    0.0000 </r>
       <r>   11.9232    0.0000 </r>
      </set>
      <set comment="kpoint 30">
       <r>   -4.5349    1.0000 </r>
       <r>   -4.5349    1.0000 </r>
       <r>   -3.7231    1.0000 </r>
       <r>   -3.7231    1.0000 </r>
       <r>   -0.5691    1.0000 </r>
       <r>   -0.5691    1.0000 </r>
       <r>    0.4025    1.0000 </r>
       <r>    0.4025    1.0000 </r>
       <r>    1.9717    1.0000 </r>
       <r>    1.9717    1.0000 </r>
       <r>    2.7650    1.0000 </r>
       <r>    2.7650    1.0000 </r>
       <r>    3.8843    1.0000 </r>
       <r>    3.8843    1.0000 </r>
       <r>    4.4094    1.0000 </r>
       <r>    4.4094    1.0000 </r>
       <r>    8.0581    0.0000 </r>
       <r>    8.0581    0.0000 </r>
       <r>    8.4787    0.0000 </r>
       <r>    8.4787    0.0000 </r>
       <r>    9.0296    0.0000 </r>
       <r>    9.0296    0.0000 </r>
       <r>    9.7492    0.0000 </r>
       <r>    9.7492    0.0000 </r>
       <r>   10.3339    0.0000 </r>
       <r>   10.3339    0.0000 </r>
       <r>   11.2222    0.0000 </r>
       <r>   11.2222    0.0000 </r>
       <r>   11.2311    0.0000 </r>
       <r>   11.2311    0.0000 </r>
       <r>   11.9805    0.0000 </r>
       <r>   11.9805    0.0000 </r>
      </set>
      <set comment="kpoint 31">
       <r>   -4.5607    1.0000 </r>
       <r>   -4.5607    1.0000 </r>
       <r>   -3.6709    1.0000 </r>
       <r>   -3.6709    1.0000 </r>
       <r>   -0.6545    1.0000 </r>
       <r>   -0.6545    1.0000 </r>
       <r>    0.4034    1.0000 </r>
       <r>    0.4034    1.0000 </r>
       <r>    2.0043    1.0000 </r>
       <r>    2.0043    1.0000 </r>
       <r>    2.8894    1.0000 </r>
       <r>    2.8894    1.0000 </r>
       <r>    3.8281    1.0000 </r>
       <r>    3.8281    1.0000 </r>
       <r>    4.3954    1.0000 </r>
       <r>    4.3954    1.0000 </r>
       <r>    8.0953    0.0000 </r>
       <r>    8.0953    0.0000 </r>
       <r>    8.4679    0.0000 </r>
       <r>    8.4679    0.0000 </r>
       <r>    8.9488    0.0000 </r>
       <r>    8.9488    0.0000 </r>
       <r>    9.6362    0.0000 </r>
       <r>    9.6362    0.0000 </r>
       <r>   10.2956    0.0000 </r>
       <r>   10.2956    0.0000 </r>
       <r>   11.1993    0.0000 </r>
       <r>   11.1993    0.0000 </r>
       <r>   11.2649    0.0000 </r>
       <r>   11.2649    0.0000 </r>
       <r>   12.0422    0.0000 </r>
       <r>   12.0427    0.0000 </r>
      </set>
      <set comment="kpoint 32">
       <r>   -4.5838    1.0000 </r>
       <r>   -4.5838    1.0000 </r>
       <r>   -3.6207    1.0000 </r>
       <r>   -3.6207    1.0000 </r>
       <r>   -0.7357    1.0000 </r>
       <r>   -0.7357    1.0000 </r>
       <r>    0.4025    1.0000 </r>
       <r>    0.4025    1.0000 </r>
       <r>    2.0385    1.0000 </r>
       <r>    2.0385    1.0000 </r>
       <r>    3.0149    1.0000 </r>
       <r>    3.0149    1.0000 </r>
       <r>    3.7728    1.0000 </r>
       <r>    3.7728    1.0000 </r>
       <r>    4.3758    1.0000 </r>
       <r>    4.3758    1.0000 </r>
       <r>    8.1391    0.0000 </r>
       <r>    8.1391    0.0000 </r>
       <r>    8.4053    0.0000 </r>
       <r>    8.4053    0.0000 </r>
       <r>    8.9293    0.0000 </r>
       <r>    8.9293    0.0000 </r>
       <r>    9.5235    0.0000 </r>
       <r>    9.5235    0.0000 </r>
       <r>   10.2578    0.0000 </r>
       <r>   10.2578    0.0000 </r>
       <r>   11.1702    0.0000 </r>
       <r>   11.1702    0.0000 </r>
       <r>   11.3042    0.0000 </r>
       <r>   11.3042    0.0000 </r>
       <r>   12.1079    0.0000 </r>
       <r>   12.1079    0.0000 </r>
      </set>
      <set comment="kpoint 33">
[...]
       <r>   -4.6838    1.0000 </r>
       <r>   -3.9395    1.0000 </r>
       <r>   -3.9395    1.0000 </r>
       <r>   -3.6000    1.0000 </r>
       <r>   -1.1270    1.0000 </r>
       <r>   -0.7552    1.0000 </r>
       <r>   -0.7552    1.0000 </r>
       <r>    0.0977    1.0000 </r>
       <r>    2.7146    1.0000 </r>
       <r>    3.1216    1.0000 </r>
       <r>    3.1216    1.0000 </r>
       <r>    3.9753    1.0000 </r>
       <r>    3.9753    1.0000 </r>
       <r>    3.9757    1.0000 </r>
       <r>    4.1562    1.0000 </r>
       <r>    4.6790    1.0000 </r>
       <r>    7.5333    0.0000 </r>
       <r>    7.7254    0.0000 </r>
       <r>    7.9648    0.0000 </r>
       <r>    7.9648    0.0000 </r>
       <r>    9.0464    0.0000 </r>
       <r>    9.0464    0.0000 </r>
       <r>    9.0732    0.0000 </r>
       <r>    9.1979    0.0000 </r>
       <r>    9.6522    0.0000 </r>
       <r>   10.0752    0.0000 </r>
       <r>   10.1737    0.0000 </r>
       <r>   10.1737    0.0000 </r>
       <r>   12.1558    0.0000 </r>
       <r>   12.1558    0.0000 </r>
       <r>   12.9783    0.0000 </r>
       <r>   13.1399    0.0000 </r>
      </set>
      <set comment="kpoint 199">
       <r>   -4.7446    1.0000 </r>
       <r>   -3.9377    1.0000 </r>
       <r>   -3.9377    1.0000 </r>
       <r>   -3.5617    1.0000 </r>
       <r>   -1.1177    1.0000 </r>
       <r>   -0.7049    1.0000 </r>
       <r>   -0.7049    1.0000 </r>
       <r>    0.2283    1.0000 </r>
       <r>    2.5890    1.0000 </r>
       <r>    3.0267    1.0000 </r>
       <r>    3.0267    1.0000 </r>
       <r>    3.9265    1.0000 </r>
       <r>    3.9265    1.0000 </r>
       <r>    3.9335    1.0000 </r>
       <r>    4.1306    1.0000 </r>
       <r>    4.7069    1.0000 </r>
       <r>    7.5818    0.0000 </r>
       <r>    7.6853    0.0000 </r>
       <r>    7.9663    0.0000 </r>
       <r>    7.9663    0.0000 </r>
       <r>    9.0802    0.0000 </r>
       <r>    9.1176    0.0000 </r>
       <r>    9.1176    0.0000 </r>
       <r>    9.2200    0.0000 </r>
       <r>    9.8061    0.0000 </r>
       <r>   10.1957    0.0000 </r>
       <r>   10.3196    0.0000 </r>
       <r>   10.3196    0.0000 </r>
       <r>   11.9389    0.0000 </r>
       <r>   11.9389    0.0000 </r>
       <r>   12.8234    0.0000 </r>
       <r>   13.0072    0.0000 </r>
      </set>
      <set comment="kpoint 200">
       <r>   -4.8048    1.0000 </r>
       <r>   -3.9351    1.0000 </r>
       <r>   -3.9351    1.0000 </r>
       <r>   -3.5214    1.0000 </r>
       <r>   -1.1096    1.0000 </r>
       <r>   -0.6540    1.0000 </r>
       <r>   -0.6540    1.0000 </r>
       <r>    0.3618    1.0000 </r>
       <r>    2.4662    1.0000 </r>
       <r>    2.9346    1.0000 </r>
       <r>    2.9346    1.0000 </r>
       <r>    3.8762    1.0000 </r>
       <r>    3.8762    1.0000 </r>
       <r>    3.8912    1.0000 </r>
       <r>    4.1050    1.0000 </r>
       <r>    4.7360    1.0000 </r>
       <r>    7.6319    0.0000 </r>
       <r>    7.6411    0.0000 </r>
       <r>    7.9610    0.0000 </r>
       <r>    7.9610    0.0000 </r>
       <r>    9.0859    0.0000 </r>
       <r>    9.1964    0.0000 </r>
       <r>    9.1964    0.0000 </r>
       <r>    9.2418    0.0000 </r>
       <r>    9.9663    0.0000 </r>
       <r>   10.3205    0.0000 </r>
       <r>   10.4717    0.0000 </r>
       <r>   10.4717    0.0000 </r>
       <r>   11.7219    0.0000 </r>
       <r>   11.7219    0.0000 </r>
       <r>   12.6608    0.0000 </r>
       <r>   12.8905    0.0000 </r>
      </set>
     </set>
    </set>
   </array>
  </eigenvalues>
  <separator name="orbital magnetization" >
   <v name="MAGDIPOLOUT">      0.00000000      0.00000000      0.00000000</v>
  </separator>
  <dos>
   <i name="efermi">      5.87753259 </i>
   <total>
    <array>
     <dimension dim="1">gridpoints</dimension>
     <dimension dim="2">spin</dimension>
     <field>energy</field>
     <field>total</field>
     <field>integrated</field>
     <set>
      <set comment="spin 1">
       <r>    -7.2854     0.0000     0.0000 </r>
       <r>    -7.2056     0.0000     0.0000 </r>
       <r>    -7.1259     0.0000     0.0000 </r>
       <r>    -7.0462     0.0000     0.0000 </r>
       <r>    -6.9664     0.0000     0.0000 </r>
       <r>    -6.8867     0.0000     0.0000 </r>
       <r>    -6.8069     0.0000     0.0000 </r>
       <r>    -6.7272     0.0000     0.0000 </r>
       <r>    -6.6474     0.0000     0.0000 </r>
       <r>    -6.5677     0.0000     0.0000 </r>
       <r>    -6.4879     0.0000     0.0000 </r>
       <r>    -6.4082     0.0000     0.0000 </r>
       <r>    -6.3284     0.0001     0.0000 </r>
       <r>    -6.2487     0.0503     0.0040 </r>
       <r>    -6.1690     0.7392     0.0630 </r>
       <r>    -6.0892     0.7649     0.1240 </r>
       <r>    -6.0095     0.4538     0.1601 </r>
       <r>    -5.9297     0.3616     0.1890 </r>
       <r>    -5.8500     0.3058     0.2134 </r>
       <r>    -5.7702     0.2687     0.2348 </r>
       <r>    -5.6905     0.2649     0.2559 </r>
       <r>    -5.6107     0.2229     0.2737 </r>
       <r>    -5.5310     0.2145     0.2908 </r>
       <r>    -5.4513     0.2187     0.3082 </r>
       <r>    -5.3715     0.1851     0.3230 </r>
       <r>    -5.2918     0.1988     0.3388 </r>
       <r>    -5.2120     0.1702     0.3524 </r>
       <r>    -5.1323     0.1952     0.3680 </r>
       <r>    -5.0525     0.1385     0.3790 </r>
       <r>    -4.9728     0.1996     0.3949 </r>
       <r>    -4.8930     0.1962     0.4106 </r>
       <r>    -4.8133     1.5414     0.5335 </r>
       <r>    -4.7335     3.1878     0.7877 </r>
       <r>    -4.6538     3.2147     1.0441 </r>
       <r>    -4.5741     3.4959     1.3229 </r>
       <r>    -4.4943     2.7249     1.5402 </r>
       <r>    -4.4146     2.3860     1.7304 </r>
       <r>    -4.3348     2.4990     1.9297 </r>
       <r>    -4.2551     2.8682     2.1584 </r>
       <r>    -4.1753     5.5401     2.6002 </r>
       <r>    -4.0956     5.5173     3.0402 </r>
       <r>    -4.0158     4.5395     3.4022 </r>
       <r>    -3.9361     8.4747     4.0780 </r>
       <r>    -3.8564    11.2054     4.9716 </r>
       <r>    -3.7766     5.1602     5.3831 </r>
       <r>    -3.6969     4.1057     5.7105 </r>
       <r>    -3.6171     3.8702     6.0192 </r>
       <r>    -3.5374     4.4739     6.3759 </r>
       <r>    -3.4576     5.1885     6.7897 </r>
       <r>    -3.3779     3.6134     7.0778 </r>
       <r>    -3.2981     1.3361     7.1844 </r>
       <r>    -3.2184     0.7891     7.2473 </r>
       <r>    -3.1386     0.7596     7.3079 </r>
       <r>    -3.0589     0.5927     7.3551 </r>
       <r>    -2.9792     0.8022     7.4191 </r>
       <r>    -2.8994     0.5456     7.4626 </r>
       <r>    -2.8197     0.7458     7.5221 </r>
       <r>    -2.7399     0.4337     7.5567 </r>
       <r>    -2.6602     0.7930     7.6199 </r>
       <r>    -2.5804     0.3958     7.6515 </r>
       <r>    -2.5007     0.6618     7.7043 </r>
       <r>    -2.4209     0.5199     7.7457 </r>
       <r>    -2.3412     0.5449     7.7892 </r>
       <r>    -2.2614     0.7188     7.8465 </r>
       <r>    -2.1817     0.5588     7.8911 </r>
       <r>    -2.1020     2.1622     8.0635 </r>
       <r>    -2.0222     0.8012     8.1274 </r>
       <r>    -1.9425     0.5659     8.1725 </r>
       <r>    -1.8627     0.6123     8.2213 </r>
       <r>    -1.7830     0.4382     8.2563 </r>
       <r>    -1.7032     0.5902     8.3034 </r>
       <r>    -1.6235     0.4625     8.3402 </r>
       <r>    -1.5437     0.3036     8.3645 </r>
       <r>    -1.4640     0.8215     8.4300 </r>
       <r>    -1.3843     0.2236     8.4478 </r>
       <r>    -1.3045     1.0051     8.5280 </r>
       <r>    -1.2248     7.2495     9.1061 </r>
       <r>    -1.1450     9.3116     9.8486 </r>
       <r>    -1.0653    11.0311    10.7283 </r>
       <r>    -0.9855     5.8566    11.1953 </r>
       <r>    -0.9058     3.5855    11.4812 </r>
       <r>    -0.8260     3.2046    11.7368 </r>
       <r>    -0.7463     3.1516    11.9881 </r>
       <r>    -0.6665     3.3307    12.2537 </r>
       <r>    -0.5868     2.5430    12.4565 </r>
       <r>    -0.5071     2.1620    12.6289 </r>
       <r>    -0.4273     2.0389    12.7915 </r>
       <r>    -0.3476     1.9854    12.9499 </r>
       <r>    -0.2678     1.9040    13.1017 </r>
       <r>    -0.1881     1.9145    13.2544 </r>
       <r>    -0.1083     2.0553    13.4183 </r>
       <r>    -0.0286     2.1132    13.5868 </r>
       <r>     0.0512     2.1896    13.7614 </r>
       <r>     0.1309     2.8469    13.9884 </r>
       <r>     0.2106     3.9828    14.3060 </r>
       <r>     0.2904     2.2470    14.4852 </r>
       <r>     0.3701     5.6624    14.9368 </r>
       <r>     0.4499     7.3102    15.5197 </r>
       <r>     0.5296     0.5052    15.5600 </r>
       <r>     0.6094     0.0665    15.5653 </r>
       <r>     0.6891     0.2422    15.5846 </r>
       <r>     0.7689     0.0668    15.5899 </r>
       <r>     0.8486     0.0011    15.5900 </r>
       <r>     0.9284     0.0387    15.5931 </r>
       <r>     1.0081     0.1029    15.6013 </r>
       <r>     1.0878     0.1830    15.6159 </r>
       <r>     1.1676     0.0575    15.6205 </r>
       <r>     1.2473     0.1014    15.6286 </r>
       <r>     1.3271     0.3063    15.6530 </r>
       <r>     1.4068     0.3444    15.6805 </r>
       <r>     1.4866     0.3354    15.7072 </r>
       <r>     1.5663     0.4122    15.7401 </r>
       <r>     1.6461     0.1795    15.7544 </r>
       <r>     1.7258     0.1965    15.7701 </r>
       <r>     1.8055     0.7835    15.8326 </r>
       <r>     1.8853     2.1310    16.0025 </r>
       <r>     1.9650     5.1733    16.4150 </r>
       <r>     2.0448     4.7211    16.7915 </r>
       <r>     2.1245     3.8626    17.0995 </r>
       <r>     2.2043     3.3518    17.3668 </r>
       <r>     2.2840     3.9534    17.6821 </r>
       <r>     2.3638     3.1905    17.9365 </r>
       <r>     2.4435     3.8093    18.2403 </r>
       <r>     2.5233     3.9849    18.5581 </r>
       <r>     2.6030     2.9243    18.7913 </r>
       <r>     2.6827     3.3444    19.0580 </r>
       <r>     2.7625     4.1540    19.3892 </r>
       <r>     2.8422     6.9310    19.9419 </r>
       <r>     2.9220     5.5847    20.3873 </r>
       <r>     3.0017     3.9864    20.7052 </r>
       <r>     3.0815     2.6638    20.9176 </r>
       <r>     3.1612     2.4887    21.1161 </r>
       <r>     3.2410     2.2899    21.2987 </r>
       <r>     3.3207     2.6507    21.5101 </r>
       <r>     3.4005     1.9412    21.6649 </r>
       <r>     3.4802     2.5162    21.8655 </r>
       <r>     3.5599     3.6535    22.1569 </r>
       <r>     3.6397     4.1462    22.4875 </r>
       <r>     3.7194     3.6960    22.7822 </r>
       <r>     3.7992     5.0467    23.1847 </r>
       <r>     3.8789     8.3008    23.8466 </r>
       <r>     3.9587     9.3420    24.5916 </r>
       <r>     4.0384     8.0901    25.2368 </r>
       <r>     4.1182     9.4484    25.9902 </r>
       <r>     4.1979     9.5625    26.7528 </r>
       <r>     4.2776    10.0065    27.5507 </r>
       <r>     4.3574    12.6711    28.5612 </r>
       <r>     4.4371    16.6965    29.8927 </r>
       <r>     4.5169     8.5419    30.5738 </r>
       <r>     4.5966     2.7329    30.7918 </r>
       <r>     4.6764     2.8917    31.0224 </r>
       <r>     4.7561     2.4740    31.2197 </r>
       <r>     4.8359     1.1907    31.3146 </r>
       <r>     4.9156     0.5876    31.3615 </r>
       <r>     4.9954     0.4536    31.3976 </r>
       <r>     5.0751     0.5109    31.4384 </r>
       <r>     5.1548     0.5995    31.4862 </r>
       <r>     5.2346     0.6735    31.5399 </r>
       <r>     5.3143     0.6294    31.5901 </r>
       <r>     5.3941     0.6718    31.6437 </r>
       <r>     5.4738     0.7618    31.7044 </r>
       <r>     5.5536     1.2762    31.8062 </r>
       <r>     5.6333     1.9228    31.9595 </r>
       <r>     5.7131     0.5038    31.9997 </r>
       <r>     5.7928     0.0037    32.0000 </r>
       <r>     5.8725     0.0000    32.0000 </r>
       <r>     5.9523     0.0000    32.0000 </r>
       <r>     6.0320     0.0000    32.0000 </r>
       <r>     6.1118     0.0000    32.0000 </r>
       <r>     6.1915     0.0000    32.0000 </r>
       <r>     6.2713     0.0440    32.0035 </r>
       <r>     6.3510     1.7183    32.1405 </r>
       <r>     6.4308     3.6371    32.4306 </r>
       <r>     6.5105     2.0539    32.5944 </r>
       <r>     6.5903     1.2191    32.6916 </r>
       <r>     6.6700     1.4770    32.8094 </r>
       <r>     6.7497     0.9751    32.8871 </r>
       <r>     6.8295     0.9711    32.9646 </r>
       <r>     6.9092     0.8517    33.0325 </r>
       <r>     6.9890     1.0537    33.1165 </r>
       <r>     7.0687     2.3820    33.3065 </r>
       <r>     7.1485     5.5152    33.7463 </r>
       <r>     7.2282     3.7926    34.0487 </r>
       <r>     7.3080     3.0672    34.2933 </r>
       <r>     7.3877     2.9070    34.5251 </r>
       <r>     7.4675     2.7881    34.7475 </r>
       <r>     7.5472     2.6871    34.9618 </r>
       <r>     7.6269     3.8938    35.2723 </r>
       <r>     7.7067     5.9908    35.7500 </r>
       <r>     7.7864     6.8261    36.2943 </r>
       <r>     7.8662     8.5704    36.9778 </r>
       <r>     7.9459     6.3230    37.4820 </r>
       <r>     8.0257     6.3986    37.9923 </r>
       <r>     8.1054     6.6370    38.5216 </r>
       <r>     8.1852     6.9189    39.0733 </r>
       <r>     8.2649     6.7658    39.6128 </r>
       <r>     8.3446     4.3944    39.9633 </r>
       <r>     8.4244     3.9535    40.2785 </r>
       <r>     8.5041     4.6180    40.6468 </r>
       <r>     8.5839     3.2772    40.9082 </r>
       <r>     8.6636     2.4422    41.1029 </r>
       <r>     8.7434     3.7455    41.4016 </r>
       <r>     8.8231     6.1094    41.8888 </r>
       <r>     8.9029    11.2554    42.7864 </r>
       <r>     8.9826    20.1890    44.3963 </r>
       <r>     9.0624    14.6798    45.5670 </r>
       <r>     9.1421     9.9384    46.3595 </r>
       <r>     9.2218     8.8802    47.0677 </r>
       <r>     9.3016     7.1776    47.6401 </r>
       <r>     9.3813     4.6784    48.0131 </r>
       <r>     9.4611     4.5470    48.3757 </r>
       <r>     9.5408     4.6856    48.7494 </r>
       <r>     9.6206     3.4300    49.0229 </r>
       <r>     9.7003     3.8042    49.3263 </r>
       <r>     9.7801     3.1893    49.5806 </r>
       <r>     9.8598     3.6261    49.8698 </r>
       <r>     9.9395     3.1342    50.1197 </r>
       <r>    10.0193     3.7753    50.4208 </r>
       <r>    10.0990     4.3360    50.7666 </r>
       <r>    10.1788     4.6682    51.1388 </r>
       <r>    10.2585     4.0743    51.4637 </r>
       <r>    10.3383     5.2390    51.8815 </r>
       <r>    10.4180     5.6255    52.3301 </r>
       <r>    10.4978     4.8178    52.7143 </r>
       <r>    10.5775     4.2967    53.0570 </r>
       <r>    10.6573     3.9385    53.3710 </r>
       <r>    10.7370     6.3076    53.8740 </r>
       <r>    10.8167     4.2594    54.2137 </r>
       <r>    10.8965     2.0931    54.3806 </r>
       <r>    10.9762     2.5059    54.5804 </r>
       <r>    11.0560     3.5052    54.8600 </r>
       <r>    11.1357     3.3596    55.1279 </r>
       <r>    11.2155     2.9487    55.3630 </r>
       <r>    11.2952     3.4846    55.6409 </r>
       <r>    11.3750     2.7972    55.8640 </r>
       <r>    11.4547     3.6850    56.1578 </r>
       <r>    11.5344     3.8943    56.4684 </r>
       <r>    11.6142     5.2042    56.8834 </r>
       <r>    11.6939     6.1717    57.3755 </r>
       <r>    11.7737     4.7005    57.7504 </r>
       <r>    11.8534     2.7224    57.9675 </r>
       <r>    11.9332     2.3225    58.1527 </r>
       <r>    12.0129     2.1913    58.3274 </r>
       <r>    12.0927     2.3866    58.5178 </r>
       <r>    12.1724     2.4875    58.7161 </r>
       <r>    12.2522     2.4237    58.9094 </r>
       <r>    12.3319     2.2091    59.0856 </r>
       <r>    12.4116     1.8257    59.2312 </r>
       <r>    12.4914     2.1065    59.3992 </r>
       <r>    12.5711     2.2608    59.5794 </r>
       <r>    12.6509     2.9235    59.8126 </r>
       <r>    12.7306     4.5001    60.1714 </r>
       <r>    12.8104     2.6596    60.3835 </r>
       <r>    12.8901     1.8531    60.5313 </r>
       <r>    12.9699     1.5313    60.6534 </r>
       <r>    13.0496     1.4285    60.7673 </r>
       <r>    13.1294     1.4351    60.8818 </r>
       <r>    13.2091     2.8851    61.1118 </r>
       <r>    13.2888     3.6998    61.4069 </r>
       <r>    13.3686     8.9126    62.1176 </r>
       <r>    13.4483     6.5843    62.6427 </r>
       <r>    13.5281     3.5931    62.9292 </r>
       <r>    13.6078     2.2179    63.1061 </r>
       <r>    13.6876     2.9767    63.3435 </r>
       <r>    13.7673     1.0796    63.4296 </r>
       <r>    13.8471     0.4031    63.4617 </r>
       <r>    13.9268     0.4242    63.4955 </r>
       <r>    14.0065     0.1596    63.5083 </r>
       <r>    14.0863     0.2596    63.5290 </r>
       <r>    14.1660     0.4221    63.5626 </r>
       <r>    14.2458     0.5099    63.6033 </r>
       <r>    14.3255     0.1269    63.6134 </r>
       <r>    14.4053     0.0974    63.6212 </r>
       <r>    14.4850     0.2425    63.6405 </r>
       <r>    14.5648     0.2286    63.6587 </r>
       <r>    14.6445     0.0836    63.6654 </r>
       <r>    14.7243     0.3954    63.6969 </r>
       <r>    14.8040     0.1947    63.7125 </r>
       <r>    14.8837     0.0884    63.7195 </r>
       <r>    14.9635     0.0601    63.7243 </r>
       <r>    15.0432     0.2759    63.7463 </r>
       <r>    15.1230     0.3856    63.7771 </r>
       <r>    15.2027     0.3584    63.8057 </r>
       <r>    15.2825     0.0852    63.8124 </r>
       <r>    15.3622     0.1529    63.8246 </r>
       <r>    15.4420     0.5713    63.8702 </r>
       <r>    15.5217     0.7134    63.9271 </r>
       <r>    15.6014     0.8381    63.9939 </r>
       <r>    15.6812     0.0760    64.0000 </r>
       <r>    15.7609     0.0001    64.0000 </r>
       <r>    15.8407     0.0000    64.0000 </r>
       <r>    15.9204     0.0000    64.0000 </r>
       <r>    16.0002     0.0000    64.0000 </r>
       <r>    16.0799     0.0000    64.0000 </r>
       <r>    16.1597     0.0000    64.0000 </r>
       <r>    16.2394     0.0000    64.0000 </r>
       <r>    16.3192     0.0000    64.0000 </r>
       <r>    16.3989     0.0000    64.0000 </r>
       <r>    16.4786     0.0000    64.0000 </r>
       <r>    16.5584     0.0000    64.0000 </r>
       <r>    16.6381     0.0000    64.0000 </r>
      </set>
     </set>
    </array>
   </total>
  </dos>
 </calculation>
 <structure name="finalpos" >
  <crystal>
   <varray name="basis" >
    <v>       5.46945757       0.00000000       0.00000000 </v>
    <v>       0.00000000       5.46945757       0.00000000 </v>
    <v>       0.00000000       0.00000000       5.46945757 </v>
   </varray>
   <i name="volume">    163.61863769 </i>
   <varray name="rec_basis" >
    <v>       0.18283349      -0.00000000       0.00000000 </v>
    <v>       0.00000000       0.18283349       0.00000000 </v>
    <v>      -0.00000000      -0.00000000       0.18283349 </v>
   </varray>
  </crystal>
  <varray name="positions" >
   <v>       0.00000000       0.00000000       0.00000000 </v>
   <v>       0.00000000       0.50000000       0.50000000 </v>
   <v>       0.50000000       0.50000000       0.00000000 </v>
   <v>       0.50000000       0.00000000       0.50000000 </v>
   <v>       0.75000000       0.25000000       0.75000000 </v>
   <v>       0.25000000       0.25000000       0.25000000 </v>
   <v>       0.25000000       0.75000000       0.75000000 </v>
   <v>       0.75000000       0.75000000       0.25000000 </v>
  </varray>
 </structure>
</modeling>
