       N       E                     dE             d eps       ncg     rms          rms(c)
DAV:   1     0.702753189492E+02    0.70275E+02   -0.11991E+04   480   0.108E+03
DAV:   2    -0.384896397805E+02   -0.10876E+03   -0.98801E+02   632   0.155E+02
DAV:   3    -0.439853777561E+02   -0.54957E+01   -0.54088E+01   640   0.329E+01
DAV:   4    -0.440853535392E+02   -0.99976E-01   -0.99887E-01   584   0.555E+00
DAV:   5    -0.440877921815E+02   -0.24386E-02   -0.24383E-02   656   0.799E-01    0.978E+00
DAV:   6    -0.435851752192E+02    0.50262E+00   -0.25474E-01   560   0.202E+00    0.600E+00
DAV:   7    -0.433567414219E+02    0.22843E+00   -0.53420E-01   512   0.305E+00    0.356E-01
DAV:   8    -0.433610873845E+02   -0.43460E-02   -0.29543E-02   544   0.780E-01    0.126E-01
DAV:   9    -0.433618894048E+02   -0.80202E-03   -0.12417E-03   592   0.186E-01    0.115E-01
DAV:  10    -0.433621050660E+02   -0.21566E-03   -0.46501E-04   536   0.993E-02    0.470E-02
DAV:  11    -0.433621058901E+02   -0.82414E-06   -0.92396E-06   584   0.151E-02
   1 F= -.43362106E+02 E0= -.43362106E+02  d E =-.433621E+02
       N       E                     dE             d eps       ncg     rms          rms(c)
DAV:   1    -0.433997522566E+02   -0.37647E-01   -0.87248E-01   512   0.395E+00    0.951E-01
DAV:   2    -0.433831502871E+02    0.16602E-01   -0.28757E-02   528   0.748E-01    0.609E-01
DAV:   3    -0.433733254419E+02    0.98248E-02   -0.17079E-02   488   0.506E-01    0.183E-01
DAV:   4    -0.433733556202E+02   -0.30178E-04   -0.56003E-04   528   0.115E-01    0.153E-01
DAV:   5    -0.433733175695E+02    0.38051E-04   -0.43702E-05   528   0.351E-02    0.776E-03
DAV:   6    -0.433733155826E+02    0.19869E-05   -0.20465E-06   472   0.749E-03    0.166E-02
DAV:   7    -0.433733161003E+02   -0.51775E-06   -0.71984E-07   296   0.515E-03
   2 F= -.43373316E+02 E0= -.43373316E+02  d E =-.112102E-01
       N       E                     dE             d eps       ncg     rms          rms(c)
DAV:   1    -0.433868014081E+02   -0.13486E-01   -0.14868E-01   512   0.164E+00    0.396E-01
DAV:   2    -0.433840508173E+02    0.27506E-02   -0.53169E-03   512   0.315E-01    0.252E-01
DAV:   3    -0.433824483929E+02    0.16024E-02   -0.28503E-03   480   0.208E-01    0.758E-02
DAV:   4    -0.433824577249E+02   -0.93320E-05   -0.94229E-05   536   0.479E-02    0.638E-02
DAV:   5    -0.433824672144E+02   -0.94895E-05   -0.86270E-06   488   0.158E-02    0.131E-02
DAV:   6    -0.433824668061E+02    0.40829E-06   -0.14847E-07   240   0.254E-03
   3 F= -.43382467E+02 E0= -.43382467E+02  d E =-.203609E-01
       N       E                     dE             d eps       ncg     rms          rms(c)
DAV:   1    -0.433824899232E+02   -0.22709E-04   -0.23691E-04   512   0.655E-02    0.173E-02
DAV:   2    -0.433824847678E+02    0.51554E-05   -0.82236E-06   496   0.125E-02    0.111E-02
DAV:   3    -0.433824806816E+02    0.40862E-05   -0.46748E-06   480   0.839E-03    0.304E-03
DAV:   4    -0.433824805839E+02    0.97686E-07   -0.14152E-07   240   0.194E-03
   4 F= -.43382481E+02 E0= -.43382481E+02  d E =-.203747E-01
