 vasp.6.4.2 20Jul23 (build Nov 02 2024 22:18:10) complex                        
  
 executed on             LinuxIFC date 2026.05.03  20:21:57
 running    4 mpi-ranks, with    6 threads/rank, on    1 nodes
 distrk:  each k-point on    4 cores,    1 groups
 distr:  one band on NCORE=   1 cores,    4 groups


--------------------------------------------------------------------------------------------------------


 INCAR:
   ALGO = Normal
   EDIFF = 1e-06
   ENCUT = 520.0
   IBRION = 2
   ISIF = 3
   ISMEAR = 0
   LCHARG = False
   LREAL = Auto
   LWAVE = False
   NSW = 100
   PREC = Accurate
   SIGMA = 0.05
   SYSTEM = Si_relax

 POTCAR:    PAW_PBE Si 05Jan2001                  
 POTCAR:    PAW_PBE Si 05Jan2001                  
   SHA256 =  79d9987ad8750f624c4d6acb2a16d13abf6a777132adc04dc6c8399be72b42bb Si/POTCAR             
   COPYR  = (c) Copyright 05Jan2001 Georg Kresse                                                    
   COPYR  = This file is part of the software VASP. Any use, copying, and all other rights are regul
   COPYR  = If you do not have a valid VASP license, you may not use, copy or distribute this file. 
   VRHFIN =Si: s2p2                                                                                 
   LEXCH  = PE                                                                                      
   EATOM  =   103.0669 eV,    7.5752 Ry                                                             
                                                                                                    
   TITEL  = PAW_PBE Si 05Jan2001                                                                    
   LULTRA =        F    use ultrasoft PP ?                                                          
   IUNSCR =        1    unscreen: 0-lin 1-nonlin 2-no                                               
   RPACOR =    1.500    partial core radius                                                         
   POMASS =   28.085; ZVAL   =    4.000    mass and valenz                                          
   RCORE  =    1.900    outmost cutoff radius                                                       
   RWIGS  =    2.480; RWIGS  =    1.312    wigner-seitz radius (au A)                               
   ENMAX  =  245.345; ENMIN  =  184.009 eV                                                          
   ICORE  =        2    local potential                                                             
   LCOR   =        T    correct aug charges                                                         
   LPAW   =        T    paw PP                                                                      
   EAUG   =  322.069                                                                                
   DEXC   =    0.000                                                                                
   RMAX   =    1.950    core radius for proj-oper                                                   
   RAUG   =    1.300    factor for augmentation sphere                                              
   RDEP   =    1.993    radius for radial grids                                                     
   RDEPT  =    1.837    core radius for aug-charge                                                  
                                                                                                    
   Atomic configuration                                                                             
    6 entries                                                                                       
     n  l   j            E        occ.                                                              
     1  0  0.50     -1785.8828   2.0000                                                             
     2  0  0.50      -139.4969   2.0000                                                             
     2  1  1.50       -95.5546   6.0000                                                             
     3  0  0.50       -10.8127   2.0000                                                             
     3  1  0.50        -4.0811   2.0000                                                             
     3  2  1.50        -4.0817   0.0000                                                             
   Description                                                                                      
     l       E           TYP  RCUT    TYP  RCUT                                                     
     0    -10.8127223     23  1.900                                                                 
     0     -7.6451159     23  1.900                                                                 
     1     -4.0811372     23  1.900                                                                 
     1      2.4879257     23  1.900                                                                 
     2     -4.0817478      7  1.900                                                                 
  local pseudopotential read in
  partial core-charges read in
  partial kinetic energy density read in
  atomic valenz-charges read in
  non local Contribution for L=           0  read in
    real space projection operators read in
  non local Contribution for L=           0  read in
    real space projection operators read in
  non local Contribution for L=           1  read in
    real space projection operators read in
  non local Contribution for L=           1  read in
    real space projection operators read in
    PAW grid and wavefunctions read in
 
   number of l-projection  operators is LMAX  =           4
   number of lm-projection operators is LMMAX =           8
 
 -----------------------------------------------------------------------------
|                                                                             |
|               ----> ADVICE to this user running VASP <----                  |
|                                                                             |
|     You have a (more or less) 'small supercell' and for smaller cells       |
|     it is recommended to use the reciprocal-space projection scheme!        |
|     The real-space optimization is not efficient for small cells and it     |
|     is also less accurate ...                                               |
|     Therefore, set LREAL=.FALSE. in the INCAR file.                         |
|                                                                             |
 -----------------------------------------------------------------------------

 Optimization of the real space projectors (new method)

 maximal supplied QI-value         = 19.84
 optimisation between [QCUT,QGAM] = [ 11.51, 23.22] = [ 37.09,150.92] Ry 
 Optimized for a Real-space Cutoff    1.21 Angstroem

   l    n(q)    QCUT    max X(q) W(low)/X(q) W(high)/X(q)  e(spline) 
   0      8    11.508   159.560    0.71E-04    0.15E-03    0.51E-07
   0      8    11.508   115.863    0.70E-04    0.15E-03    0.51E-07
   1      8    11.508    88.339    0.16E-03    0.38E-04    0.82E-07
   1      8    11.508    48.592    0.15E-03    0.36E-04    0.79E-07
  PAW_PBE Si 05Jan2001                  :
 energy of atom  1       EATOM= -103.0669
 kinetic energy error for atom=    0.0005 (will be added to EATOM!!)
 
 
 POSCAR: Si diamond Fd-3m from CIF
  positions in direct lattice
  No initial velocities read in
 exchange correlation table for  LEXCH =        8
   RHO(1)=    0.500       N(1)  =     2000
   RHO(2)=  100.500       N(2)  =     4000

 VTST: version 4.1, (05/19/21)

 CHAIN: initializing optimizer
 
 OPT: Using VASP Conjugate-Gradient optimizer
 CHAIN: Read ICHAIN            0
 
 POSCAR: Si diamond Fd-3m from CIF
  positions in direct lattice
  No initial velocities read in
 


--------------------------------------------------------------------------------------------------------


 ion  position               nearest neighbor table
   1  0.000  0.000  0.000-   5 2.35   6 2.35   7 2.35   8 2.35
   2  0.000  0.500  0.500-   5 2.35   6 2.35   7 2.35   8 2.35
   3  0.500  0.500  0.000-   5 2.35   6 2.35   7 2.35   8 2.35
   4  0.500  0.000  0.500-   5 2.35   6 2.35   7 2.35   8 2.35
   5  0.750  0.250  0.750-   1 2.35   2 2.35   3 2.35   4 2.35
   6  0.250  0.250  0.250-   1 2.35   2 2.35   3 2.35   4 2.35
   7  0.250  0.750  0.750-   1 2.35   2 2.35   3 2.35   4 2.35
   8  0.750  0.750  0.250-   1 2.35   2 2.35   3 2.35   4 2.35
 
  LATTYP: Found a simple cubic cell.
 ALAT       =     5.4300000000
  
  Lattice vectors:
  
 A1 = (   5.4300000000,   0.0000000000,   0.0000000000)
 A2 = (   0.0000000000,   5.4300000000,   0.0000000000)
 A3 = (   0.0000000000,   0.0000000000,   5.4300000000)


Analysis of symmetry for initial positions (statically):
=====================================================================
 Subroutine PRICEL returns following result:
 
  LATTYP: Found a face centered cubic cell.
 ALAT       =     5.4300000000
  
  Lattice vectors:
  
 A1 = (   2.7150000000,  -2.7150000000,   0.0000000000)
 A2 = (   2.7150000000,   0.0000000000,   2.7150000000)
 A3 = (   0.0000000000,  -2.7150000000,   2.7150000000)
 
   4 primitive cells build up your supercell.
 

 Routine SETGRP: Setting up the symmetry group for a 
 simple cubic supercell.


 Subroutine GETGRP returns: Found 48 space group operations
 (whereof 24 operations were pure point group operations)
 out of a pool of 48 trial point group operations.


The static configuration has the point symmetry T_d .
 The point group associated with its full space group is O_h .


Analysis of symmetry for dynamics (positions and initial velocities):
=====================================================================
 Subroutine PRICEL returns following result:
 
  LATTYP: Found a face centered cubic cell.
 ALAT       =     5.4300000000
  
  Lattice vectors:
  
 A1 = (   2.7150000000,  -2.7150000000,   0.0000000000)
 A2 = (   2.7150000000,   0.0000000000,   2.7150000000)
 A3 = (   0.0000000000,  -2.7150000000,   2.7150000000)
 
   4 primitive cells build up your supercell.
 

 Routine SETGRP: Setting up the symmetry group for a 
 simple cubic supercell.


 Subroutine GETGRP returns: Found 48 space group operations
 (whereof 24 operations were pure point group operations)
 out of a pool of 48 trial point group operations.


The dynamic configuration has the point symmetry T_d .
 The point group associated with its full space group is O_h .


 Subroutine INISYM returns: Found 48 space group operations
 (whereof 24 operations are pure point group operations),
 and found     4 'primitive' translations


----------------------------------------------------------------------------------------

                                     Primitive cell                                     

  volume of cell :      40.0258

  direct lattice vectors                    reciprocal lattice vectors
     2.715000000 -2.715000000  0.000000000     0.184162063 -0.184162063 -0.184162063
     2.715000000  0.000000000  2.715000000     0.184162063  0.184162063  0.184162063
     0.000000000 -2.715000000  2.715000000    -0.184162063 -0.184162063  0.184162063

  length of vectors
     3.839589822  3.839589822  3.839589822     0.318978049  0.318978049  0.318978049

  position of ions in fractional coordinates (direct lattice)
     0.000000000  0.000000000  0.000000000
     0.750000000  0.750000000  0.750000000

  ion indices of the primitive-cell ions
   primitive index   ion index
                 1           1
                 2           5

----------------------------------------------------------------------------------------

 
 
 KPOINTS: Si 8-atom cell, 4x4x4 Gamma-centered    

Automatic generation of k-mesh.
 Grid dimensions read from file:
 generate k-points for:    4    4    4

 Generating k-lattice:

  Cartesian coordinates                     Fractional coordinates (reciprocal lattice)
     0.046040516 -0.000000000  0.000000000     0.250000000  0.000000000  0.000000000
     0.000000000  0.046040516  0.000000000     0.000000000  0.250000000  0.000000000
    -0.000000000 -0.000000000  0.046040516     0.000000000 -0.000000000  0.250000000

  Length of vectors
     0.046040516  0.046040516  0.046040516

  Shift w.r.t. Gamma in fractional coordinates (k-lattice)
     0.000000000  0.000000000  0.000000000

 
 Subroutine IBZKPT returns following result:
 ===========================================
 
 Found     10 irreducible k-points:
 
 Following reciprocal coordinates:
            Coordinates               Weight
  0.000000  0.000000  0.000000      1.000000
  0.250000  0.000000  0.000000      6.000000
  0.500000  0.000000  0.000000      3.000000
  0.250000  0.250000  0.000000     12.000000
  0.500000  0.250000  0.000000     12.000000
  0.500000  0.500000  0.000000      3.000000
  0.250000  0.250000  0.250000      8.000000
  0.500000  0.250000  0.250000     12.000000
  0.500000  0.500000  0.250000      6.000000
  0.500000  0.500000  0.500000      1.000000
 
 Following cartesian coordinates:
            Coordinates               Weight
  0.000000  0.000000  0.000000      1.000000
  0.046041 -0.000000  0.000000      6.000000
  0.092081 -0.000000  0.000000      3.000000
  0.046041  0.046041  0.000000     12.000000
  0.092081  0.046041  0.000000     12.000000
  0.092081  0.092081  0.000000      3.000000
  0.046041  0.046041  0.046041      8.000000
  0.092081  0.046041  0.046041     12.000000
  0.092081  0.092081  0.046041      6.000000
  0.092081  0.092081  0.092081      1.000000
 


--------------------------------------------------------------------------------------------------------




 Dimension of arrays:
   k-points           NKPTS =     10   k-points in BZ     NKDIM =     10   number of bands    NBANDS=     24
   number of dos      NEDOS =    301   number of ions     NIONS =      8
   non local maximal  LDIM  =      4   non local SUM 2l+1 LMDIM =      8
   total plane-waves  NPLWV =  64000
   max r-space proj   IRMAX =   3022   max aug-charges    IRDMAX=  13563
   dimension x,y,z NGX =    40 NGY =   40 NGZ =   40
   dimension x,y,z NGXF=    80 NGYF=   80 NGZF=   80
   support grid    NGXF=    80 NGYF=   80 NGZF=   80
   ions per type =               8
   NGX,Y,Z   is equivalent  to a cutoff of  12.25, 12.25, 12.25 a.u.
   NGXF,Y,Z  is equivalent  to a cutoff of  24.49, 24.49, 24.49 a.u.

 SYSTEM =  Si_relax                                
 POSCAR =  Si diamond Fd-3m from CIF               

 Startparameter for this run:
   NWRITE =      2    write-flag & timer
   PREC   = accura    normal or accurate (medium, high low for compatibility)
   ISTART =      0    job   : 0-new  1-cont  2-samecut
   ICHARG =      2    charge: 1-file 2-atom 10-const
   ISPIN  =      1    spin polarized calculation?
   LNONCOLLINEAR =      F non collinear calculations
   LSORBIT =      F    spin-orbit coupling
   INIWAV =      1    electr: 0-lowe 1-rand  2-diag
   LASPH  =      F    aspherical Exc in radial PAW
 Electronic Relaxation 1
   ENCUT  =  520.0 eV  38.22 Ry    6.18 a.u.  10.10 10.10 10.10*2*pi/ulx,y,z
   ENINI  =  520.0     initial cutoff
   ENAUG  =  322.1 eV  augmentation charge cutoff
   NELM   =     60;   NELMIN=  2; NELMDL= -5     # of ELM steps 
   EDIFF  = 0.1E-05   stopping-criterion for ELM
   LREAL  =      T    real-space projection
   NLSPLINE    = F    spline interpolate recip. space projectors
   LCOMPAT=      F    compatible to vasp.4.4
   GGA_COMPAT  = T    GGA compatible to vasp.4.4-vasp.4.6
   LMAXPAW     = -100 max onsite density
   LMAXMIX     =    2 max onsite mixed and CHGCAR
   VOSKOWN=      0    Vosko Wilk Nusair interpolation
   ROPT   =   -0.00025
 Ionic relaxation
   EDIFFG = 0.1E-04   stopping-criterion for IOM
   NSW    =    100    number of steps for IOM
   NBLOCK =      1;   KBLOCK =    100    inner block; outer block 
   IBRION =      2    ionic relax: 0-MD 1-quasi-New 2-CG
   NFREE  =      1    steps in history (QN), initial steepest desc. (CG)
   ISIF   =      3    stress and relaxation
   IWAVPR =     11    prediction:  0-non 1-charg 2-wave 3-comb
   ISYM   =      2    0-nonsym 1-usesym 2-fastsym
   LCORR  =      T    Harris-Foulkes like correction to forces

   POTIM  = 0.5000    time-step for ionic-motion
   TEIN   =    0.0    initial temperature
   TEBEG  =    0.0;   TEEND  =   0.0 temperature during run
   SMASS  =  -3.00    Nose mass-parameter (am)
   estimated Nose-frequenzy (Omega)   =  0.10E-29 period in steps = 0.13E+47 mass=  -0.674E-27a.u.
   SCALEE = 1.0000    scale energy and forces
   NPACO  =    256;   APACO  = 10.0  distance and # of slots for P.C.
   PSTRESS=    0.0 pullay stress

  Mass of Ions in am
   POMASS =  28.09
  Ionic Valenz
   ZVAL   =   4.00
  Atomic Wigner-Seitz radii
   RWIGS  =  -1.00
  virtual crystal weights 
   VCA    =   1.00
   NELECT =      32.0000    total number of electrons
   NUPDOWN=      -1.0000    fix difference up-down

 DOS related values:
   EMIN   =  10.00;   EMAX   =-10.00  energy-range for DOS
   EFERMI =   0.00;   METHOD = LEGACY      
   ISMEAR =     0;   SIGMA  =   0.05  broadening in eV -4-tet -1-fermi 0-gaus

 Electronic relaxation 2 (details)
   IALGO  =     38    algorithm
   LDIAG  =      T    sub-space diagonalisation (order eigenvalues)
   LSUBROT=      F    optimize rotation matrix (better conditioning)
   TURBO    =      0    0=normal 1=particle mesh
   IRESTART =      0    0=no restart 2=restart with 2 vectors
   NREBOOT  =      0    no. of reboots
   NMIN     =      0    reboot dimension
   EREF     =   0.00    reference energy to select bands
   IMIX   =      4    mixing-type and parameters
     AMIX     =   0.40;   BMIX     =  1.00
     AMIX_MAG =   1.60;   BMIX_MAG =  1.00
     AMIN     =   0.10
     WC   =   100.;   INIMIX=   1;  MIXPRE=   1;  MAXMIX= -45

 Intra band minimization:
   WEIMIN = 0.0010     energy-eigenvalue tresh-hold
   EBREAK =  0.10E-07  absolut break condition
   DEPER  =   0.30     relativ break condition  

   TIME   =   0.40     timestep for ELM

  volume/ion in A,a.u.               =      20.01       135.05
  Fermi-wavevector in a.u.,A,eV,Ry     =   0.957176  1.808800 12.465458  0.916185
  Thomas-Fermi vector in A             =   2.086170
 
 Write flags
   LWAVE        =      F    write WAVECAR
   LDOWNSAMPLE  =      F    k-point downsampling of WAVECAR
   LCHARG       =      F    write CHGCAR
   LVTOT        =      F    write LOCPOT, total local potential
   LVHAR        =      F    write LOCPOT, Hartree potential only
   LELF         =      F    write electronic localiz. function (ELF)
   LORBIT       =      0    0 simple, 1 ext, 2 COOP (PROOUT), +10 PAW based schemes


 Dipole corrections
   LMONO  =      F    monopole corrections only (constant potential shift)
   LDIPOL =      F    correct potential (dipole corrections)
   IDIPOL =      0    1-x, 2-y, 3-z, 4-all directions 
   EPSILON=  1.0000000 bulk dielectric constant

 Exchange correlation treatment:
   GGA     =    --    GGA type
   LEXCH   =     8    internal setting for exchange type
   LIBXC   =     F    Libxc                    
   VOSKOWN =     0    Vosko Wilk Nusair interpolation
   LHFCALC =     F    Hartree Fock is set to
   LHFONE  =     F    Hartree Fock one center treatment
   AEXX    =    0.0000 exact exchange contribution

 Linear response parameters
   LEPSILON=     F    determine dielectric tensor
   LRPA    =     F    only Hartree local field effects (RPA)
   LNABLA  =     F    use nabla operator in PAW spheres
   LVEL    =     F    velocity operator in full k-point grid
   CSHIFT  =0.1000    complex shift for real part using Kramers Kronig
   OMEGAMAX=  -1.0    maximum frequency
   DEG_THRESHOLD= 0.2000000E-02 threshold for treating states as degnerate
   RTIME   =   -0.100 relaxation time in fs
  (WPLASMAI=    0.000 imaginary part of plasma frequency in eV, 0.658/RTIME)
   DFIELD  = 0.0000000 0.0000000 0.0000000 field for delta impulse in time
 
  Optional k-point grid parameters
   LKPOINTS_OPT  =     F    use optional k-point grid
   KPOINTS_OPT_MODE=     1    mode for optional k-point grid
 
 Orbital magnetization related:
   ORBITALMAG=     F  switch on orbital magnetization
   LCHIMAG   =     F  perturbation theory with respect to B field
   DQ        =  0.001000  dq finite difference perturbation B field
   LLRAUG    =     F  two centre corrections for induced B field
   LBONE     =     F  B-component reconstruction in AE one-centre
   LVGVCALC  =     T  calculate vGv susceptibility
   LVGVAPPL  =     F  apply vGv susceptibility instead of pGv for G=0

 Random number generation:
   RANDOM_GENERATOR = DEFAULT
   PCG_SEED         = not used


--------------------------------------------------------------------------------------------------------


 conjugate gradient relaxation of ions
 charge density and potential will be updated during run
 non-spin polarized calculation
 Variant of blocked Davidson
 Davidson routine will perform the subspace rotation
 perform sub-space diagonalisation
    after iterative eigenvector-optimisation
 modified Broyden-mixing scheme, WC =      100.0
 initial mixing is a Kerker type mixing with AMIX =  0.4000 and BMIX =      1.0000
 Hartree-type preconditioning will be used
 using additional bands            8
 real space projection scheme for non local part
 use partial core corrections
 calculate Harris-corrections to forces 
   (improved forces if not selfconsistent)
 use gradient corrections 
 use of overlap-Matrix (Vanderbilt PP)
 Gauss-broadening in eV      SIGMA  =   0.05


--------------------------------------------------------------------------------------------------------


  energy-cutoff  :      520.00
  volume of cell :      160.10
      direct lattice vectors                 reciprocal lattice vectors
     5.430000000  0.000000000  0.000000000     0.184162063 -0.000000000  0.000000000
     0.000000000  5.430000000  0.000000000     0.000000000  0.184162063  0.000000000
     0.000000000  0.000000000  5.430000000    -0.000000000 -0.000000000  0.184162063

  length of vectors
     5.430000000  5.430000000  5.430000000     0.184162063  0.184162063  0.184162063


 
 k-points in units of 2pi/SCALE and weight: Si 8-atom cell, 4x4x4 Gamma-centered    
   0.00000000  0.00000000  0.00000000       0.016
   0.04604052 -0.00000000  0.00000000       0.094
   0.09208103 -0.00000000  0.00000000       0.047
   0.04604052  0.04604052  0.00000000       0.188
   0.09208103  0.04604052  0.00000000       0.188
   0.09208103  0.09208103  0.00000000       0.047
   0.04604052  0.04604052  0.04604052       0.125
   0.09208103  0.04604052  0.04604052       0.188
   0.09208103  0.09208103  0.04604052       0.094
   0.09208103  0.09208103  0.09208103       0.016
 
 k-points in reciprocal lattice and weights: Si 8-atom cell, 4x4x4 Gamma-centered    
   0.00000000  0.00000000  0.00000000       0.016
   0.25000000  0.00000000  0.00000000       0.094
   0.50000000  0.00000000  0.00000000       0.047
   0.25000000  0.25000000  0.00000000       0.188
   0.50000000  0.25000000  0.00000000       0.188
   0.50000000  0.50000000  0.00000000       0.047
   0.25000000  0.25000000  0.25000000       0.125
   0.50000000  0.25000000  0.25000000       0.188
   0.50000000  0.50000000  0.25000000       0.094
   0.50000000  0.50000000  0.50000000       0.016
 
 position of ions in fractional coordinates (direct lattice) 
   0.00000000  0.00000000  0.00000000
   0.00000000  0.50000000  0.50000000
   0.50000000  0.50000000  0.00000000
   0.50000000  0.00000000  0.50000000
   0.75000000  0.25000000  0.75000000
   0.25000000  0.25000000  0.25000000
   0.25000000  0.75000000  0.75000000
   0.75000000  0.75000000  0.25000000
 
 position of ions in cartesian coordinates  (Angst):
   0.00000000  0.00000000  0.00000000
   0.00000000  2.71500000  2.71500000
   2.71500000  2.71500000  0.00000000
   2.71500000  0.00000000  2.71500000
   4.07250000  1.35750000  4.07250000
   1.35750000  1.35750000  1.35750000
   1.35750000  4.07250000  4.07250000
   4.07250000  4.07250000  1.35750000
 


--------------------------------------------------------------------------------------------------------


 k-point   1 :   0.0000 0.0000 0.0000  plane waves:    4337
 k-point   2 :   0.2500 0.0000 0.0000  plane waves:    4300
 k-point   3 :   0.5000 0.0000 0.0000  plane waves:    4292
 k-point   4 :   0.2500 0.2500 0.0000  plane waves:    4278
 k-point   5 :   0.5000 0.2500 0.0000  plane waves:    4326
 k-point   6 :   0.5000 0.5000 0.0000  plane waves:    4324
 k-point   7 :   0.2500 0.2500 0.2500  plane waves:    4323
 k-point   8 :   0.5000 0.2500 0.2500  plane waves:    4324
 k-point   9 :   0.5000 0.5000 0.2500  plane waves:    4320
 k-point  10 :   0.5000 0.5000 0.5000  plane waves:    4272

 maximum and minimum number of plane-waves per node :      4337     4272

 maximum number of plane-waves:      4337
 maximum index in each direction: 
   IXMAX=   10   IYMAX=   10   IZMAX=   10
   IXMIN=  -10   IYMIN=  -10   IZMIN=  -10


 serial   3D FFT for wavefunctions
 parallel 3D FFT for charge:
    minimum data exchange during FFTs selected (reduces bandwidth)


 total amount of memory used by VASP MPI-rank0    49782. kBytes
=======================================================================

   base      :      30000. kBytes
   nonlr-proj:       2038. kBytes
   fftplans  :       4661. kBytes
   grid      :       8832. kBytes
   one-center:         24. kBytes
   wavefun   :       4227. kBytes
 
     INWAV:  cpu time      0.0002: real time      0.0000
 Broyden mixing: mesh for mixing (old mesh)
   NGX = 21   NGY = 21   NGZ = 21
  (NGX  = 80   NGY  = 80   NGZ  = 80)
  gives a total of   9261 points

 initial charge density was supplied:
 charge density of overlapping atoms calculated
 number of electron      32.0000000 magnetization 
 keeping initial charge density in first step


--------------------------------------------------------------------------------------------------------


 Maximum index for non-local projection operator         2897
 Maximum index for augmentation-charges         3287 (set IRDMAX)


--------------------------------------------------------------------------------------------------------


 First call to EWALD:  gamma=   0.326
 Maximum number of real-space cells 3x 3x 3
 Maximum number of reciprocal cells 3x 3x 3

    FEWALD:  cpu time      0.0113: real time      0.0036


--------------------------------------- Ionic step        1  -------------------------------------------




--------------------------------------- Iteration      1(   1)  ---------------------------------------


    POTLOK:  cpu time      0.1795: real time      0.0355
    SETDIJ:  cpu time      0.0203: real time      0.0040
     EDDAV:  cpu time      3.2259: real time      0.5939
       DOS:  cpu time      0.0072: real time      0.0012
    --------------------------------------------
      LOOP:  cpu time      3.4333: real time      0.6347

 eigenvalue-minimisations  :   480
 total energy-change (2. order) : 0.7027532E+02  (-0.1199100E+04)
 number of electron      32.0000000 magnetization 
 augmentation part       32.0000000 magnetization 

 Free energy of the ion-electron system (eV)
  ---------------------------------------------------
  alpha Z        PSCENC =        13.45658905
  Ewald energy   TEWEN  =      -914.25413255
  -Hartree energ DENC   =       -44.00432968
  -exchange      EXHF   =         0.00000000
  -V(xc)+E(xc)   XCENC  =       -74.40746730
  PAW double counting   =       704.99039692     -564.24414232
  entropy T*S    EENTRO =        -0.00016755
  eigenvalues    EBANDS =       124.20776144
  atomic energy  EATOM  =       824.53081094
  Solvation  Ecorr_sol  =         0.00000000
  ---------------------------------------------------
  free energy    TOTEN  =        70.27531895 eV

  energy without entropy =       70.27548650  energy(sigma->0) =       70.27540272


--------------------------------------------------------------------------------------------------------




--------------------------------------- Iteration      1(   2)  ---------------------------------------


     EDDAV:  cpu time      3.2680: real time      0.5002
       DOS:  cpu time      0.0023: real time      0.0004
    --------------------------------------------
      LOOP:  cpu time      3.2702: real time      0.5005

 eigenvalue-minimisations  :   632
 total energy-change (2. order) :-0.1087650E+03  (-0.9880134E+02)
 number of electron      32.0000000 magnetization 
 augmentation part       32.0000000 magnetization 

 Free energy of the ion-electron system (eV)
  ---------------------------------------------------
  alpha Z        PSCENC =        13.45658905
  Ewald energy   TEWEN  =      -914.25413255
  -Hartree energ DENC   =       -44.00432968
  -exchange      EXHF   =         0.00000000
  -V(xc)+E(xc)   XCENC  =       -74.40746730
  PAW double counting   =       704.99039692     -564.24414232
  entropy T*S    EENTRO =        -0.00000000
  eigenvalues    EBANDS =        15.44263516
  atomic energy  EATOM  =       824.53081094
  Solvation  Ecorr_sol  =         0.00000000
  ---------------------------------------------------
  free energy    TOTEN  =       -38.48963978 eV

  energy without entropy =      -38.48963978  energy(sigma->0) =      -38.48963978


--------------------------------------------------------------------------------------------------------




--------------------------------------- Iteration      1(   3)  ---------------------------------------


     EDDAV:  cpu time      3.3236: real time      0.5063
       DOS:  cpu time      0.0024: real time      0.0004
    --------------------------------------------
      LOOP:  cpu time      3.3260: real time      0.5066

 eigenvalue-minimisations  :   640
 total energy-change (2. order) :-0.5495738E+01  (-0.5408775E+01)
 number of electron      32.0000000 magnetization 
 augmentation part       32.0000000 magnetization 

 Free energy of the ion-electron system (eV)
  ---------------------------------------------------
  alpha Z        PSCENC =        13.45658905
  Ewald energy   TEWEN  =      -914.25413255
  -Hartree energ DENC   =       -44.00432968
  -exchange      EXHF   =         0.00000000
  -V(xc)+E(xc)   XCENC  =       -74.40746730
  PAW double counting   =       704.99039692     -564.24414232
  entropy T*S    EENTRO =        -0.00000000
  eigenvalues    EBANDS =         9.94689718
  atomic energy  EATOM  =       824.53081094
  Solvation  Ecorr_sol  =         0.00000000
  ---------------------------------------------------
  free energy    TOTEN  =       -43.98537776 eV

  energy without entropy =      -43.98537776  energy(sigma->0) =      -43.98537776


--------------------------------------------------------------------------------------------------------




--------------------------------------- Iteration      1(   4)  ---------------------------------------


     EDDAV:  cpu time      3.2398: real time      0.4932
       DOS:  cpu time      0.0024: real time      0.0004
    --------------------------------------------
      LOOP:  cpu time      3.2422: real time      0.4936

 eigenvalue-minimisations  :   584
 total energy-change (2. order) :-0.9997578E-01  (-0.9988723E-01)
 number of electron      32.0000000 magnetization 
 augmentation part       32.0000000 magnetization 

 Free energy of the ion-electron system (eV)
  ---------------------------------------------------
  alpha Z        PSCENC =        13.45658905
  Ewald energy   TEWEN  =      -914.25413255
  -Hartree energ DENC   =       -44.00432968
  -exchange      EXHF   =         0.00000000
  -V(xc)+E(xc)   XCENC  =       -74.40746730
  PAW double counting   =       704.99039692     -564.24414232
  entropy T*S    EENTRO =        -0.00000000
  eigenvalues    EBANDS =         9.84692140
  atomic energy  EATOM  =       824.53081094
  Solvation  Ecorr_sol  =         0.00000000
  ---------------------------------------------------
  free energy    TOTEN  =       -44.08535354 eV

  energy without entropy =      -44.08535354  energy(sigma->0) =      -44.08535354


--------------------------------------------------------------------------------------------------------




--------------------------------------- Iteration      1(   5)  ---------------------------------------


     EDDAV:  cpu time      3.3555: real time      0.5091
       DOS:  cpu time      0.0023: real time      0.0004
    CHARGE:  cpu time      0.1612: real time      0.0275
    MIXING:  cpu time      0.0190: real time      0.0034
    --------------------------------------------
      LOOP:  cpu time      3.5381: real time      0.5404

 eigenvalue-minimisations  :   656
 total energy-change (2. order) :-0.2438642E-02  (-0.2438253E-02)
 number of electron      32.0000004 magnetization 
 augmentation part       -1.8822801 magnetization 

 Broyden mixing:
  rms(total) = 0.97831E+00    rms(broyden)= 0.97831E+00
  rms(prec ) = 0.13629E+01
  weight for this iteration     100.00

 Free energy of the ion-electron system (eV)
  ---------------------------------------------------
  alpha Z        PSCENC =        13.45658905
  Ewald energy   TEWEN  =      -914.25413255
  -Hartree energ DENC   =       -44.00432968
  -exchange      EXHF   =         0.00000000
  -V(xc)+E(xc)   XCENC  =       -74.40746730
  PAW double counting   =       704.99039692     -564.24414232
  entropy T*S    EENTRO =        -0.00000000
  eigenvalues    EBANDS =         9.84448276
  atomic energy  EATOM  =       824.53081094
  Solvation  Ecorr_sol  =         0.00000000
  ---------------------------------------------------
  free energy    TOTEN  =       -44.08779218 eV

  energy without entropy =      -44.08779218  energy(sigma->0) =      -44.08779218


--------------------------------------------------------------------------------------------------------




--------------------------------------- Iteration      1(   6)  ---------------------------------------


    POTLOK:  cpu time      0.1577: real time      0.0263
    SETDIJ:  cpu time      0.0131: real time      0.0022
     EDDAV:  cpu time      3.0413: real time      0.4637
       DOS:  cpu time      0.0025: real time      0.0004
    CHARGE:  cpu time      0.1462: real time      0.0241
    MIXING:  cpu time      0.0097: real time      0.0016
    --------------------------------------------
      LOOP:  cpu time      3.3705: real time      0.5183

 eigenvalue-minimisations  :   560
 total energy-change (2. order) : 0.5026170E+00  (-0.2547393E-01)
 number of electron      32.0000004 magnetization 
 augmentation part       -1.8595143 magnetization 

 Broyden mixing:
  rms(total) = 0.59959E+00    rms(broyden)= 0.59959E+00
  rms(prec ) = 0.82002E+00
  weight for this iteration     100.00

 eigenvalues of (default mixing * dielectric matrix)
  average eigenvalue GAMMA=   2.5746
  2.5746

 Free energy of the ion-electron system (eV)
  ---------------------------------------------------
  alpha Z        PSCENC =        13.45658905
  Ewald energy   TEWEN  =      -914.25413255
  -Hartree energ DENC   =       -50.01408635
  -exchange      EXHF   =         0.00000000
  -V(xc)+E(xc)   XCENC  =       -73.46012887
  PAW double counting   =      1521.35565550    -1381.05340733
  entropy T*S    EENTRO =        -0.00000000
  eigenvalues    EBANDS =        15.85352439
  atomic energy  EATOM  =       824.53081094
  Solvation  Ecorr_sol  =         0.00000000
  ---------------------------------------------------
  free energy    TOTEN  =       -43.58517522 eV

  energy without entropy =      -43.58517522  energy(sigma->0) =      -43.58517522


--------------------------------------------------------------------------------------------------------




--------------------------------------- Iteration      1(   7)  ---------------------------------------


    POTLOK:  cpu time      0.1536: real time      0.0256
    SETDIJ:  cpu time      0.0132: real time      0.0022
     EDDAV:  cpu time      2.8472: real time      0.4361
       DOS:  cpu time      0.0024: real time      0.0004
    CHARGE:  cpu time      0.1469: real time      0.0242
    MIXING:  cpu time      0.0080: real time      0.0013
    --------------------------------------------
      LOOP:  cpu time      3.1713: real time      0.4898

 eigenvalue-minimisations  :   512
 total energy-change (2. order) : 0.2284338E+00  (-0.5342031E-01)
 number of electron      32.0000004 magnetization 
 augmentation part       -1.8297678 magnetization 

 Broyden mixing:
  rms(total) = 0.35614E-01    rms(broyden)= 0.35614E-01
  rms(prec ) = 0.58596E-01
  weight for this iteration     100.00

 eigenvalues of (default mixing * dielectric matrix)
  average eigenvalue GAMMA=   2.2163
  2.2163  2.2163

 Free energy of the ion-electron system (eV)
  ---------------------------------------------------
  alpha Z        PSCENC =        13.45658905
  Ewald energy   TEWEN  =      -914.25413255
  -Hartree energ DENC   =       -60.04942864
  -exchange      EXHF   =         0.00000000
  -V(xc)+E(xc)   XCENC  =       -71.84455465
  PAW double counting   =      3523.11772774    -3383.40128914
  entropy T*S    EENTRO =        -0.00000000
  eigenvalues    EBANDS =        25.08753583
  atomic energy  EATOM  =       824.53081094
  Solvation  Ecorr_sol  =         0.00000000
  ---------------------------------------------------
  free energy    TOTEN  =       -43.35674142 eV

  energy without entropy =      -43.35674142  energy(sigma->0) =      -43.35674142


--------------------------------------------------------------------------------------------------------




--------------------------------------- Iteration      1(   8)  ---------------------------------------


    POTLOK:  cpu time      0.1517: real time      0.0253
    SETDIJ:  cpu time      0.0130: real time      0.0022
     EDDAV:  cpu time      2.9654: real time      0.4515
       DOS:  cpu time      0.0024: real time      0.0004
    CHARGE:  cpu time      0.1457: real time      0.0240
    MIXING:  cpu time      0.0088: real time      0.0015
    --------------------------------------------
      LOOP:  cpu time      3.2870: real time      0.5048

 eigenvalue-minimisations  :   544
 total energy-change (2. order) :-0.4345963E-02  (-0.2954343E-02)
 number of electron      32.0000004 magnetization 
 augmentation part       -1.8339167 magnetization 

 Broyden mixing:
  rms(total) = 0.12573E-01    rms(broyden)= 0.12573E-01
  rms(prec ) = 0.19554E-01
  weight for this iteration     100.00

 eigenvalues of (default mixing * dielectric matrix)
  average eigenvalue GAMMA=   2.2979
  2.8127  2.0405  2.0405

 Free energy of the ion-electron system (eV)
  ---------------------------------------------------
  alpha Z        PSCENC =        13.45658905
  Ewald energy   TEWEN  =      -914.25413255
  -Hartree energ DENC   =       -59.46078697
  -exchange      EXHF   =         0.00000000
  -V(xc)+E(xc)   XCENC  =       -71.88977893
  PAW double counting   =      3508.40242979    -3368.55809576
  entropy T*S    EENTRO =        -0.00000000
  eigenvalues    EBANDS =        24.41187704
  atomic energy  EATOM  =       824.53081094
  Solvation  Ecorr_sol  =         0.00000000
  ---------------------------------------------------
  free energy    TOTEN  =       -43.36108738 eV

  energy without entropy =      -43.36108738  energy(sigma->0) =      -43.36108738


--------------------------------------------------------------------------------------------------------




--------------------------------------- Iteration      1(   9)  ---------------------------------------


    POTLOK:  cpu time      0.1539: real time      0.0257
    SETDIJ:  cpu time      0.0129: real time      0.0022
     EDDAV:  cpu time      3.1871: real time      0.4852
       DOS:  cpu time      0.0023: real time      0.0004
    CHARGE:  cpu time      0.1469: real time      0.0242
    MIXING:  cpu time      0.0086: real time      0.0014
    --------------------------------------------
      LOOP:  cpu time      3.5119: real time      0.5391

 eigenvalue-minimisations  :   592
 total energy-change (2. order) :-0.8020204E-03  (-0.1241715E-03)
 number of electron      32.0000004 magnetization 
 augmentation part       -1.8339877 magnetization 

 Broyden mixing:
  rms(total) = 0.11481E-01    rms(broyden)= 0.11481E-01
  rms(prec ) = 0.13050E-01
  weight for this iteration     100.00

 eigenvalues of (default mixing * dielectric matrix)
  average eigenvalue GAMMA=   2.3692
  0.9883  3.7007  2.5393  2.2486

 Free energy of the ion-electron system (eV)
  ---------------------------------------------------
  alpha Z        PSCENC =        13.45658905
  Ewald energy   TEWEN  =      -914.25413255
  -Hartree energ DENC   =       -59.72551067
  -exchange      EXHF   =         0.00000000
  -V(xc)+E(xc)   XCENC  =       -71.84524269
  PAW double counting   =      3527.71587887    -3387.87668101
  entropy T*S    EENTRO =        -0.00000000
  eigenvalues    EBANDS =        24.63639865
  atomic energy  EATOM  =       824.53081094
  Solvation  Ecorr_sol  =         0.00000000
  ---------------------------------------------------
  free energy    TOTEN  =       -43.36188940 eV

  energy without entropy =      -43.36188940  energy(sigma->0) =      -43.36188940


--------------------------------------------------------------------------------------------------------




--------------------------------------- Iteration      1(  10)  ---------------------------------------


    POTLOK:  cpu time      0.1524: real time      0.0254
    SETDIJ:  cpu time      0.0130: real time      0.0022
     EDDAV:  cpu time      2.9592: real time      0.4511
       DOS:  cpu time      0.0024: real time      0.0004
    CHARGE:  cpu time      0.1466: real time      0.0241
    MIXING:  cpu time      0.0087: real time      0.0014
    --------------------------------------------
      LOOP:  cpu time      3.2822: real time      0.5046

 eigenvalue-minimisations  :   536
 total energy-change (2. order) :-0.2156611E-03  (-0.4650078E-04)
 number of electron      32.0000004 magnetization 
 augmentation part       -1.8342440 magnetization 

 Broyden mixing:
  rms(total) = 0.46965E-02    rms(broyden)= 0.46965E-02
  rms(prec ) = 0.48497E-02
  weight for this iteration     100.00

 eigenvalues of (default mixing * dielectric matrix)
  average eigenvalue GAMMA=   1.9152
  3.0368  2.3868  2.1997  0.9764  0.9764

 Free energy of the ion-electron system (eV)
  ---------------------------------------------------
  alpha Z        PSCENC =        13.45658905
  Ewald energy   TEWEN  =      -914.25413255
  -Hartree energ DENC   =       -59.73098449
  -exchange      EXHF   =         0.00000000
  -V(xc)+E(xc)   XCENC  =       -71.84491445
  PAW double counting   =      3465.85213028    -3326.00456188
  entropy T*S    EENTRO =        -0.00000000
  eigenvalues    EBANDS =        24.63295804
  atomic energy  EATOM  =       824.53081094
  Solvation  Ecorr_sol  =         0.00000000
  ---------------------------------------------------
  free energy    TOTEN  =       -43.36210507 eV

  energy without entropy =      -43.36210507  energy(sigma->0) =      -43.36210507


--------------------------------------------------------------------------------------------------------




--------------------------------------- Iteration      1(  11)  ---------------------------------------


    POTLOK:  cpu time      0.1518: real time      0.0253
    SETDIJ:  cpu time      0.0129: real time      0.0021
     EDDAV:  cpu time      3.1586: real time      0.4822
       DOS:  cpu time      0.0023: real time      0.0004
    --------------------------------------------
      LOOP:  cpu time      3.3256: real time      0.5100

 eigenvalue-minimisations  :   584
 total energy-change (2. order) :-0.8241412E-06  (-0.9239553E-06)
 number of electron      32.0000004 magnetization 
 augmentation part       -1.8342440 magnetization 

 Free energy of the ion-electron system (eV)
  ---------------------------------------------------
  alpha Z        PSCENC =        13.45658905
  Ewald energy   TEWEN  =      -914.25413255
  -Hartree energ DENC   =       -59.73447917
  -exchange      EXHF   =         0.00000000
  -V(xc)+E(xc)   XCENC  =       -71.84367249
  PAW double counting   =      3481.38665874    -3341.53877273
  entropy T*S    EENTRO =        -0.00000000
  eigenvalues    EBANDS =        24.63489232
  atomic energy  EATOM  =       824.53081094
  Solvation  Ecorr_sol  =         0.00000000
  ---------------------------------------------------
  free energy    TOTEN  =       -43.36210589 eV

  energy without entropy =      -43.36210589  energy(sigma->0) =      -43.36210589


--------------------------------------------------------------------------------------------------------




 average (electrostatic) potential at core
  the test charge radii are     0.9892
  (the norm of the test charge is              1.0000)
       1 -83.2419       2 -83.2419       3 -83.2419       4 -83.2419       5 -83.2419
       6 -83.2419       7 -83.2419       8 -83.2419
 
 
 
 E-fermi :   6.0631     XC(G=0):  -9.4095     alpha+bet :-11.9845

 Fermi energy:         6.0630960524

 k-point     1 :       0.0000    0.0000    0.0000
  band No.  band energies     occupation 
      1      -6.1290      2.00000
      2      -1.9829      2.00000
      3      -1.9829      2.00000
      4      -1.9829      2.00000
      5      -1.9829      2.00000
      6      -1.9829      2.00000
      7      -1.9829      2.00000
      8       2.9815      2.00000
      9       2.9815      2.00000
     10       2.9815      2.00000
     11       2.9815      2.00000
     12       2.9815      2.00000
     13       2.9815      2.00000
     14       5.8318      2.00000
     15       5.8318      2.00000
     16       5.8318      2.00000
     17       6.5409      0.00000
     18       6.5409      0.00000
     19       6.5409      0.00000
     20       6.5409      0.00000
     21       6.5409      0.00000
     22       6.5409      0.00000
     23       8.3969      0.00000
     24       8.3969      0.00000

 k-point     2 :       0.2500    0.0000    0.0000
  band No.  band energies     occupation 
      1      -5.8559      2.00000
      2      -3.7334      2.00000
      3      -1.9049      2.00000
      4      -1.9049      2.00000
      5      -1.9049      2.00000
      6      -1.9049      2.00000
      7       0.0893      2.00000
      8       2.4167      2.00000
      9       2.4167      2.00000
     10       2.4167      2.00000
     11       2.4167      2.00000
     12       3.2271      2.00000
     13       3.2271      2.00000
     14       4.5003      2.00000
     15       5.0257      2.00000
     16       5.0257      2.00000
     17       6.4468      0.00000
     18       7.3707      0.00000
     19       7.8022      0.00000
     20       7.8022      0.00000
     21       7.8022      0.00000
     22       7.8022      0.00000
     23       7.8449      0.00000
     24       9.5370      0.00000

 k-point     3 :       0.5000    0.0000    0.0000
  band No.  band energies     occupation 
      1      -5.0465      2.00000
      2      -5.0465      2.00000
      3      -1.8189      2.00000
      4      -1.8189      2.00000
      5      -1.8189      2.00000
      6      -1.8189      2.00000
      7       1.9805      2.00000
      8       1.9805      2.00000
      9       1.9805      2.00000
     10       1.9805      2.00000
     11       2.3178      2.00000
     12       2.3178      2.00000
     13       3.9433      2.00000
     14       3.9433      2.00000
     15       3.9433      2.00000
     16       3.9433      2.00000
     17       6.9626      0.00000
     18       6.9626      0.00000
     19       8.9650      0.00000
     20       8.9650      0.00000
     21      10.0993      0.00000
     22      10.0993      0.00000
     23      10.0993      0.00000
     24      10.0993      0.00000

 k-point     4 :       0.2500    0.2500    0.0000
  band No.  band energies     occupation 
      1      -5.5884      2.00000
      2      -3.5348      2.00000
      3      -3.5348      2.00000
      4      -2.3967      2.00000
      5      -1.3928      2.00000
      6      -0.1296      2.00000
      7      -0.1296      2.00000
      8       1.5313      2.00000
      9       2.4712      2.00000
     10       2.4712      2.00000
     11       3.0741      2.00000
     12       3.0741      2.00000
     13       3.1503      2.00000
     14       3.4085      2.00000
     15       4.2043      2.00000
     16       5.5396      2.00000
     17       7.0354      0.00000
     18       7.7792      0.00000
     19       7.7792      0.00000
     20       8.4778      0.00000
     21       8.4778      0.00000
     22       8.8791      0.00000
     23       8.9578      0.00000
     24       9.1920      0.00000

 k-point     5 :       0.5000    0.2500    0.0000
  band No.  band energies     occupation 
      1      -4.7990      2.00000
      2      -4.7990      2.00000
      3      -3.0103      2.00000
      4      -3.0103      2.00000
      5      -0.7346      2.00000
      6      -0.7346      2.00000
      7       1.5451      2.00000
      8       1.5451      2.00000
      9       1.6058      2.00000
     10       1.6058      2.00000
     11       3.1202      2.00000
     12       3.1202      2.00000
     13       3.2494      2.00000
     14       3.2494      2.00000
     15       4.4056      2.00000
     16       4.4056      2.00000
     17       8.2802      0.00000
     18       8.2802      0.00000
     19       8.7003      0.00000
     20       8.7003      0.00000
     21       9.7383      0.00000
     22       9.7383      0.00000
     23      10.0245      0.00000
     24      10.0245      0.00000

 k-point     6 :       0.5000    0.5000    0.0000
  band No.  band energies     occupation 
      1      -4.0843      2.00000
      2      -4.0843      2.00000
      3      -4.0843      2.00000
      4      -4.0843      2.00000
      5       0.3541      2.00000
      6       0.3541      2.00000
      7       0.3541      2.00000
      8       0.3541      2.00000
      9       2.0805      2.00000
     10       2.0805      2.00000
     11       2.0805      2.00000
     12       2.0805      2.00000
     13       4.5054      2.00000
     14       4.5054      2.00000
     15       4.5054      2.00000
     16       4.5054      2.00000
     17       8.2830      0.00000
     18       8.2830      0.00000
     19       8.2830      0.00000
     20       8.2830      0.00000
     21      10.6237      0.00000
     22      10.6237      0.00000
     23      10.6243      0.00000
     24      10.6284      0.00000

 k-point     7 :       0.2500    0.2500    0.2500
  band No.  band energies     occupation 
      1      -5.3289      2.00000
      2      -3.4098      2.00000
      3      -3.4098      2.00000
      4      -3.4098      2.00000
      5      -0.5486      2.00000
      6      -0.5486      2.00000
      7      -0.5486      2.00000
      8       1.9068      2.00000
      9       2.2992      2.00000
     10       2.2992      2.00000
     11       2.2992      2.00000
     12       3.6286      2.00000
     13       3.6286      2.00000
     14       3.6286      2.00000
     15       5.0730      2.00000
     16       5.0730      2.00000
     17       7.3518      0.00000
     18       7.3518      0.00000
     19       7.3518      0.00000
     20       7.8647      0.00000
     21       9.3388      0.00000
     22       9.3388      0.00000
     23      10.2795      0.00000
     24      10.2795      0.00000

 k-point     8 :       0.5000    0.2500    0.2500
  band No.  band energies     occupation 
      1      -4.5717      2.00000
      2      -4.5717      2.00000
      3      -3.2576      2.00000
      4      -3.2576      2.00000
      5      -0.9527      2.00000
      6      -0.9527      2.00000
      7       0.5492      2.00000
      8       0.5492      2.00000
      9       2.3837      2.00000
     10       2.3837      2.00000
     11       3.6743      2.00000
     12       3.6743      2.00000
     13       3.9994      2.00000
     14       3.9994      2.00000
     15       4.2465      2.00000
     16       4.2465      2.00000
     17       8.0805      0.00000
     18       8.0805      0.00000
     19       8.9014      0.00000
     20       8.9014      0.00000
     21       8.9631      0.00000
     22       8.9631      0.00000
     23       9.4762      0.00000
     24       9.4762      0.00000

 k-point     9 :       0.5000    0.5000    0.2500
  band No.  band energies     occupation 
      1      -3.9546      2.00000
      2      -3.9546      2.00000
      3      -3.9546      2.00000
      4      -3.9546      2.00000
      5      -0.5439      2.00000
      6      -0.5439      2.00000
      7      -0.5439      2.00000
      8      -0.5439      2.00000
      9       3.3720      2.00000
     10       3.3720      2.00000
     11       3.3720      2.00000
     12       3.3720      2.00000
     13       4.5676      2.00000
     14       4.5676      2.00000
     15       4.5676      2.00000
     16       4.5676      2.00000
     17       8.1951      0.00000
     18       8.1951      0.00000
     19       8.1951      0.00000
     20       8.1951      0.00000
     21       9.4556      0.00000
     22       9.4556      0.00000
     23       9.4556      0.00000
     24       9.4556      0.00000

 k-point    10 :       0.5000    0.5000    0.5000
  band No.  band energies     occupation 
      1      -3.7965      2.00000
      2      -3.7965      2.00000
      3      -3.7965      2.00000
      4      -3.7965      2.00000
      5      -1.1362      2.00000
      6      -1.1362      2.00000
      7      -1.1362      2.00000
      8      -1.1362      2.00000
      9       4.6346      2.00000
     10       4.6346      2.00000
     11       4.6346      2.00000
     12       4.6346      2.00000
     13       4.6346      2.00000
     14       4.6346      2.00000
     15       4.6346      2.00000
     16       4.6346      2.00000
     17       7.3733      0.00000
     18       7.3733      0.00000
     19       7.3733      0.00000
     20       7.3733      0.00000
     21       9.1714      0.00000
     22       9.1714      0.00000
     23       9.1714      0.00000
     24       9.1714      0.00000


--------------------------------------------------------------------------------------------------------


 soft charge-density along one line, spin component           1
         0         1         2         3         4         5         6         7         8         9
 total charge-density along one line
 
 pseudopotential strength for first ion, spin component:           1
 18.413  25.689   0.000   0.000  -0.000   0.000   0.000  -0.000
 25.689  35.845   0.000   0.000  -0.000   0.000   0.000  -0.000
  0.000   0.000   4.178   0.000  -0.000   7.786   0.000  -0.000
  0.000   0.000   0.000   4.178  -0.000   0.000   7.786  -0.000
 -0.000  -0.000  -0.000  -0.000   4.178  -0.000  -0.000   7.786
  0.000   0.000   7.786   0.000  -0.000  14.519   0.000  -0.000
  0.000   0.000   0.000   7.786  -0.000   0.000  14.519  -0.000
 -0.000  -0.000  -0.000  -0.000   7.786  -0.000  -0.000  14.519
 total augmentation occupancy for first ion, spin component:           1
  5.713  -2.165  -0.000   0.000   0.000   0.000   0.000  -0.000
 -2.165   0.935   0.000  -0.000  -0.000  -0.000   0.000   0.000
 -0.000   0.000   2.988   0.000   0.000  -0.674  -0.000  -0.000
  0.000  -0.000   0.000   2.988   0.000  -0.000  -0.674  -0.000
  0.000  -0.000   0.000   0.000   2.988  -0.000  -0.000  -0.674
  0.000  -0.000  -0.674  -0.000  -0.000   0.161   0.000   0.000
  0.000   0.000  -0.000  -0.674  -0.000   0.000   0.161   0.000
 -0.000   0.000  -0.000  -0.000  -0.674   0.000   0.000   0.161


------------------------ aborting loop because EDIFF is reached ----------------------------------------


    CHARGE:  cpu time      0.1929: real time      0.0319
    FORLOC:  cpu time      0.0323: real time      0.0054
    FORNL :  cpu time      0.5316: real time      0.0861
    STRESS:  cpu time      1.2106: real time      0.2610
    FORCOR:  cpu time      0.1603: real time      0.0264
    FORHAR:  cpu time      0.2125: real time      0.0364
    MIXING:  cpu time      0.0083: real time      0.0014
    OFIELD:  cpu time      0.0008: real time      0.0001

  FORCE on cell =-STRESS in cart. coord.  units (eV):
  Direction    XX          YY          ZZ          XY          YZ          ZX
  --------------------------------------------------------------------------------------
  Alpha Z    13.45659    13.45659    13.45659
  Ewald    -304.75190  -304.75190  -304.75190    -0.00000    -0.00000    -0.00000
  Hartree    19.91337    19.91337    19.91337    -0.00000    -0.00000    -0.00000
  E(xc)    -101.48877  -101.48877  -101.48877    -0.00000     0.00000     0.00000
  Local    -116.88896  -116.88896  -116.88896    -0.00000     0.00000     0.00000
  n-local   311.28815   314.35252   308.27294    -2.01803    -1.69566    -0.76035
  augment   -46.59052   -46.59052   -46.59052     0.00000     0.00000     0.00000
  Kinetic   220.19714   231.15678   229.74110    -2.66007    -3.56327    -1.30389
  Fock        0.00000     0.00000     0.00000     0.00000     0.00000     0.00000
  -------------------------------------------------------------------------------------
  Total       1.98603     1.98603     1.98603     0.00000     0.00000     0.00000
  in kB      19.87457    19.87457    19.87457     0.00000     0.00000     0.00000
  external pressure =       19.87 kB  Pullay stress =        0.00 kB


 VOLUME and BASIS-vectors are now :
 -----------------------------------------------------------------------------
  energy-cutoff  :      520.00
  volume of cell :      160.10
      direct lattice vectors                 reciprocal lattice vectors
     5.430000000  0.000000000  0.000000000     0.184162063 -0.000000000  0.000000000
     0.000000000  5.430000000  0.000000000     0.000000000  0.184162063  0.000000000
     0.000000000  0.000000000  5.430000000    -0.000000000 -0.000000000  0.184162063

  length of vectors
     5.430000000  5.430000000  5.430000000     0.184162063  0.184162063  0.184162063


 FORCES acting on ions
    electron-ion (+dipol)            ewald-force                    non-local-force                 convergence-correction
 -----------------------------------------------------------------------------------------------
   -.137E-13 -.466E-14 -.103E-13   0.107E-13 0.142E-13 0.249E-13   0.688E-17 -.451E-17 0.180E-16   0.394E-15 -.113E-14 0.543E-14
   -.124E-13 0.411E-14 -.146E-14   0.107E-13 0.178E-13 0.249E-13   0.267E-16 -.854E-17 0.186E-16   0.138E-14 0.292E-14 0.614E-14
   -.262E-14 -.197E-13 0.384E-13   0.107E-13 0.178E-13 0.249E-13   0.265E-16 -.258E-16 -.197E-16   -.176E-14 0.267E-14 0.534E-14
   -.262E-14 -.644E-14 0.539E-14   0.107E-13 0.142E-13 0.249E-13   0.340E-16 -.240E-16 0.331E-16   -.197E-14 -.142E-14 0.633E-14
   0.150E-13 0.145E-13 -.557E-13   -.802E-14 -.193E-13 -.242E-13   -.557E-17 0.142E-16 -.158E-16   0.303E-14 -.392E-14 0.146E-13
   0.111E-13 -.233E-13 -.477E-13   -.120E-13 -.192E-13 -.252E-13   -.266E-16 0.101E-16 -.259E-16   0.814E-15 -.351E-14 0.220E-14
   0.105E-13 0.208E-13 -.340E-13   -.100E-13 -.164E-13 -.246E-13   -.962E-17 0.244E-16 0.137E-16   0.100E-14 0.580E-15 0.137E-13
   0.916E-14 0.147E-13 -.214E-13   -.557E-14 -.164E-13 -.256E-13   -.232E-16 -.504E-17 -.206E-16   0.320E-14 0.961E-15 0.191E-14
 -----------------------------------------------------------------------------------------------
   0.144E-13 -.743E-16 -.127E-12   0.703E-14 -.733E-14 -.167E-15   0.290E-16 -.192E-16 0.132E-17   0.610E-14 -.284E-14 0.556E-13
 
 
 POSITION                                       TOTAL-FORCE (eV/Angst)
 -----------------------------------------------------------------------------------
      0.00000      0.00000      0.00000        -0.000000      0.000000     -0.000000
      0.00000      2.71500      2.71500        -0.000000      0.000000      0.000000
      2.71500      2.71500      0.00000         0.000000      0.000000     -0.000000
      2.71500      0.00000      2.71500        -0.000000      0.000000     -0.000000
      4.07250      1.35750      4.07250         0.000000     -0.000000      0.000000
      1.35750      1.35750      1.35750         0.000000     -0.000000      0.000000
      1.35750      4.07250      4.07250        -0.000000     -0.000000      0.000000
      4.07250      4.07250      1.35750         0.000000     -0.000000     -0.000000
 -----------------------------------------------------------------------------------
    total drift:                                0.000000     -0.000000     -0.000000


--------------------------------------------------------------------------------------------------------



  FREE ENERGIE OF THE ION-ELECTRON SYSTEM (eV)
  ---------------------------------------------------
  free  energy   TOTEN  =       -43.36210589 eV

  energy  without entropy=      -43.36210589  energy(sigma->0) =      -43.36210589
 


--------------------------------------------------------------------------------------------------------


    POTLOK:  cpu time      0.1679: real time      0.0280


--------------------------------------------------------------------------------------------------------


 stress matrix after NEB project (eV)
      1.98603      0.00000      0.00000
      0.00000      1.98603      0.00000
      0.00000      0.00000      1.98603
  FORCES: max atom, RMS     0.000000    0.000000
  FORCE total and by dimension    0.000000    0.000000
  Stress total and by dimension    3.439911    1.986034


--------------------------------------------------------------------------------------------------------


    WAVPRE:  cpu time      0.0703: real time      0.0118
    FEWALD:  cpu time      0.0086: real time      0.0014
    GENKIN:  cpu time      0.0749: real time      0.0125
    ORTHCH:  cpu time      0.3896: real time      0.0601
     LOOP+:  cpu time     39.9408: real time      6.3253


--------------------------------------- Ionic step        2  -------------------------------------------




--------------------------------------- Iteration      2(   1)  ---------------------------------------


    POTLOK:  cpu time      0.1518: real time      0.0253
    SETDIJ:  cpu time      0.0129: real time      0.0021
     EDDAV:  cpu time      2.8706: real time      0.4380
       DOS:  cpu time      0.0024: real time      0.0004
    CHARGE:  cpu time      0.1495: real time      0.0246
    MIXING:  cpu time      0.0067: real time      0.0011
    --------------------------------------------
      LOOP:  cpu time      3.1942: real time      0.4917

 eigenvalue-minimisations  :   512
 total energy-change (2. order) :-0.3764719E-01  (-0.8724763E-01)
 number of electron      31.9999994 magnetization 
 augmentation part       -1.8404419 magnetization 

 Broyden mixing:
  rms(total) = 0.95114E-01    rms(broyden)= 0.95114E-01
  rms(prec ) = 0.16301E+00
  weight for this iteration     100.00

 Free energy of the ion-electron system (eV)
  ---------------------------------------------------
  alpha Z        PSCENC =        12.98445670
  Ewald energy   TEWEN  =      -903.43420543
  -Hartree energ DENC   =       -59.03706189
  -exchange      EXHF   =         0.00000000
  -V(xc)+E(xc)   XCENC  =       -72.54332228
  PAW double counting   =      3484.46429031    -3344.61653504
  entropy T*S    EENTRO =        -0.00000000
  eigenvalues    EBANDS =        14.25181444
  atomic energy  EATOM  =       824.53081094
  Solvation  Ecorr_sol  =         0.00000000
  ---------------------------------------------------
  free energy    TOTEN  =       -43.39975226 eV

  energy without entropy =      -43.39975226  energy(sigma->0) =      -43.39975226


--------------------------------------------------------------------------------------------------------




--------------------------------------- Iteration      2(   2)  ---------------------------------------


    POTLOK:  cpu time      0.1532: real time      0.0255
    SETDIJ:  cpu time      0.0127: real time      0.0021
     EDDAV:  cpu time      2.9229: real time      0.4454
       DOS:  cpu time      0.0024: real time      0.0004
    CHARGE:  cpu time      0.1451: real time      0.0239
    MIXING:  cpu time      0.0086: real time      0.0014
    --------------------------------------------
      LOOP:  cpu time      3.2450: real time      0.4988

 eigenvalue-minimisations  :   528
 total energy-change (2. order) : 0.1660197E-01  (-0.2875692E-02)
 number of electron      31.9999994 magnetization 
 augmentation part       -1.8395278 magnetization 

 Broyden mixing:
  rms(total) = 0.60877E-01    rms(broyden)= 0.60877E-01
  rms(prec ) = 0.97899E-01
  weight for this iteration     100.00

 eigenvalues of (default mixing * dielectric matrix)
  average eigenvalue GAMMA=   2.6460
  2.6460

 Free energy of the ion-electron system (eV)
  ---------------------------------------------------
  alpha Z        PSCENC =        12.98445670
  Ewald energy   TEWEN  =      -903.43420543
  -Hartree energ DENC   =       -60.07648740
  -exchange      EXHF   =         0.00000000
  -V(xc)+E(xc)   XCENC  =       -72.50841659
  PAW double counting   =      3351.84034081    -3211.96070414
  entropy T*S    EENTRO =        -0.00000000
  eigenvalues    EBANDS =        15.24105483
  atomic energy  EATOM  =       824.53081094
  Solvation  Ecorr_sol  =         0.00000000
  ---------------------------------------------------
  free energy    TOTEN  =       -43.38315029 eV

  energy without entropy =      -43.38315029  energy(sigma->0) =      -43.38315029


--------------------------------------------------------------------------------------------------------




--------------------------------------- Iteration      2(   3)  ---------------------------------------


    POTLOK:  cpu time      0.1526: real time      0.0254
    SETDIJ:  cpu time      0.0131: real time      0.0022
     EDDAV:  cpu time      2.8172: real time      0.4284
       DOS:  cpu time      0.0024: real time      0.0004
    CHARGE:  cpu time      0.1441: real time      0.0237
    MIXING:  cpu time      0.0084: real time      0.0014
    --------------------------------------------
      LOOP:  cpu time      3.1378: real time      0.4815

 eigenvalue-minimisations  :   488
 total energy-change (2. order) : 0.9824845E-02  (-0.1707866E-02)
 number of electron      31.9999994 magnetization 
 augmentation part       -1.8314701 magnetization 

 Broyden mixing:
  rms(total) = 0.18285E-01    rms(broyden)= 0.18285E-01
  rms(prec ) = 0.19276E-01
  weight for this iteration     100.00

 eigenvalues of (default mixing * dielectric matrix)
  average eigenvalue GAMMA=   1.4530
  0.6504  2.2556

 Free energy of the ion-electron system (eV)
  ---------------------------------------------------
  alpha Z        PSCENC =        12.98445670
  Ewald energy   TEWEN  =      -903.43420543
  -Hartree energ DENC   =       -61.52098333
  -exchange      EXHF   =         0.00000000
  -V(xc)+E(xc)   XCENC  =       -72.47809698
  PAW double counting   =      3138.22837133    -2998.28437807
  entropy T*S    EENTRO =        -0.00000000
  eigenvalues    EBANDS =        16.60069942
  atomic energy  EATOM  =       824.53081094
  Solvation  Ecorr_sol  =         0.00000000
  ---------------------------------------------------
  free energy    TOTEN  =       -43.37332544 eV

  energy without entropy =      -43.37332544  energy(sigma->0) =      -43.37332544


--------------------------------------------------------------------------------------------------------




--------------------------------------- Iteration      2(   4)  ---------------------------------------


    POTLOK:  cpu time      0.1552: real time      0.0259
    SETDIJ:  cpu time      0.0127: real time      0.0021
     EDDAV:  cpu time      2.9517: real time      0.4483
       DOS:  cpu time      0.0024: real time      0.0004
    CHARGE:  cpu time      0.1447: real time      0.0238
    MIXING:  cpu time      0.0082: real time      0.0014
    --------------------------------------------
      LOOP:  cpu time      3.2750: real time      0.5019

 eigenvalue-minimisations  :   528
 total energy-change (2. order) :-0.3017827E-04  (-0.5600290E-04)
 number of electron      31.9999994 magnetization 
 augmentation part       -1.8312793 magnetization 

 Broyden mixing:
  rms(total) = 0.15331E-01    rms(broyden)= 0.15331E-01
  rms(prec ) = 0.15929E-01
  weight for this iteration     100.00

 eigenvalues of (default mixing * dielectric matrix)
  average eigenvalue GAMMA=   1.8328
  2.5152  1.4916  1.4916

 Free energy of the ion-electron system (eV)
  ---------------------------------------------------
  alpha Z        PSCENC =        12.98445670
  Ewald energy   TEWEN  =      -903.43420543
  -Hartree energ DENC   =       -61.44860788
  -exchange      EXHF   =         0.00000000
  -V(xc)+E(xc)   XCENC  =       -72.48403735
  PAW double counting   =      3161.05608086    -3021.10705291
  entropy T*S    EENTRO =        -0.00000000
  eigenvalues    EBANDS =        16.52919946
  atomic energy  EATOM  =       824.53081094
  Solvation  Ecorr_sol  =         0.00000000
  ---------------------------------------------------
  free energy    TOTEN  =       -43.37335562 eV

  energy without entropy =      -43.37335562  energy(sigma->0) =      -43.37335562


--------------------------------------------------------------------------------------------------------




--------------------------------------- Iteration      2(   5)  ---------------------------------------


    POTLOK:  cpu time      0.1516: real time      0.0253
    SETDIJ:  cpu time      0.0129: real time      0.0021
     EDDAV:  cpu time      2.9497: real time      0.4484
       DOS:  cpu time      0.0024: real time      0.0004
    CHARGE:  cpu time      0.1427: real time      0.0235
    MIXING:  cpu time      0.0105: real time      0.0017
    --------------------------------------------
      LOOP:  cpu time      3.2698: real time      0.5014

 eigenvalue-minimisations  :   528
 total energy-change (2. order) : 0.3805071E-04  (-0.4370175E-05)
 number of electron      31.9999994 magnetization 
 augmentation part       -1.8311609 magnetization 

 Broyden mixing:
  rms(total) = 0.77624E-03    rms(broyden)= 0.77624E-03
  rms(prec ) = 0.96478E-03
  weight for this iteration     100.00

 eigenvalues of (default mixing * dielectric matrix)
  average eigenvalue GAMMA=   1.7536
  2.6383  2.2231  1.0766  1.0766

 Free energy of the ion-electron system (eV)
  ---------------------------------------------------
  alpha Z        PSCENC =        12.98445670
  Ewald energy   TEWEN  =      -903.43420543
  -Hartree energ DENC   =       -61.45013930
  -exchange      EXHF   =         0.00000000
  -V(xc)+E(xc)   XCENC  =       -72.49318878
  PAW double counting   =      3218.56509043    -3078.59535082
  entropy T*S    EENTRO =        -0.00000000
  eigenvalues    EBANDS =        16.51920870
  atomic energy  EATOM  =       824.53081094
  Solvation  Ecorr_sol  =         0.00000000
  ---------------------------------------------------
  free energy    TOTEN  =       -43.37331757 eV

  energy without entropy =      -43.37331757  energy(sigma->0) =      -43.37331757


--------------------------------------------------------------------------------------------------------




--------------------------------------- Iteration      2(   6)  ---------------------------------------


    POTLOK:  cpu time      0.1520: real time      0.0253
    SETDIJ:  cpu time      0.0128: real time      0.0021
     EDDAV:  cpu time      2.7602: real time      0.4199
       DOS:  cpu time      0.0024: real time      0.0004
    CHARGE:  cpu time      0.1448: real time      0.0239
    MIXING:  cpu time      0.0085: real time      0.0014
    --------------------------------------------
      LOOP:  cpu time      3.0807: real time      0.4730

 eigenvalue-minimisations  :   472
 total energy-change (2. order) : 0.1986925E-05  (-0.2046504E-06)
 number of electron      31.9999994 magnetization 
 augmentation part       -1.8311942 magnetization 

 Broyden mixing:
  rms(total) = 0.16636E-02    rms(broyden)= 0.16636E-02
  rms(prec ) = 0.16789E-02
  weight for this iteration     100.00

 eigenvalues of (default mixing * dielectric matrix)
  average eigenvalue GAMMA=   1.9634
  2.6210  2.6210  2.1725  1.0031  1.3994

 Free energy of the ion-electron system (eV)
  ---------------------------------------------------
  alpha Z        PSCENC =        12.98445670
  Ewald energy   TEWEN  =      -903.43420543
  -Hartree energ DENC   =       -61.44266726
  -exchange      EXHF   =         0.00000000
  -V(xc)+E(xc)   XCENC  =       -72.49497773
  PAW double counting   =      3223.50718750    -3083.53505505
  entropy T*S    EENTRO =        -0.00000000
  eigenvalues    EBANDS =        16.51113476
  atomic energy  EATOM  =       824.53081094
  Solvation  Ecorr_sol  =         0.00000000
  ---------------------------------------------------
  free energy    TOTEN  =       -43.37331558 eV

  energy without entropy =      -43.37331558  energy(sigma->0) =      -43.37331558


--------------------------------------------------------------------------------------------------------




--------------------------------------- Iteration      2(   7)  ---------------------------------------


    POTLOK:  cpu time      0.1514: real time      0.0252
    SETDIJ:  cpu time      0.0126: real time      0.0021
     EDDAV:  cpu time      2.0679: real time      0.3148
       DOS:  cpu time      0.0025: real time      0.0004
    --------------------------------------------
      LOOP:  cpu time      2.2344: real time      0.3425

 eigenvalue-minimisations  :   296
 total energy-change (2. order) :-0.5177501E-06  (-0.7198357E-07)
 number of electron      31.9999994 magnetization 
 augmentation part       -1.8311942 magnetization 

 Free energy of the ion-electron system (eV)
  ---------------------------------------------------
  alpha Z        PSCENC =        12.98445670
  Ewald energy   TEWEN  =      -903.43420543
  -Hartree energ DENC   =       -61.44577269
  -exchange      EXHF   =         0.00000000
  -V(xc)+E(xc)   XCENC  =       -72.49542300
  PAW double counting   =      3215.49998606    -3075.52824331
  entropy T*S    EENTRO =        -0.00000000
  eigenvalues    EBANDS =        16.51507463
  atomic energy  EATOM  =       824.53081094
  Solvation  Ecorr_sol  =         0.00000000
  ---------------------------------------------------
  free energy    TOTEN  =       -43.37331610 eV

  energy without entropy =      -43.37331610  energy(sigma->0) =      -43.37331610


--------------------------------------------------------------------------------------------------------




 average (electrostatic) potential at core
  the test charge radii are     0.9892
  (the norm of the test charge is              1.0000)
       1 -83.6382       2 -83.6382       3 -83.6382       4 -83.6382       5 -83.6382
       6 -83.6382       7 -83.6382       8 -83.6382
 
 
 
 E-fermi :   5.7147     XC(G=0):  -9.2700     alpha+bet :-11.5641

 Fermi energy:         5.7146553315

 k-point     1 :       0.0000    0.0000    0.0000
  band No.  band energies     occupation 
      1      -6.2425      2.00000
      2      -2.2254      2.00000
      3      -2.2254      2.00000
      4      -2.2254      2.00000
      5      -2.2254      2.00000
      6      -2.2254      2.00000
      7      -2.2254      2.00000
      8       2.7190      2.00000
      9       2.7190      2.00000
     10       2.7190      2.00000
     11       2.7190      2.00000
     12       2.7190      2.00000
     13       2.7190      2.00000
     14       5.4762      2.00000
     15       5.4762      2.00000
     16       5.4762      2.00000
     17       6.2540      0.00000
     18       6.2540      0.00000
     19       6.2540      0.00000
     20       6.2540      0.00000
     21       6.2540      0.00000
     22       6.2540      0.00000
     23       8.0260      0.00000
     24       8.0260      0.00000

 k-point     2 :       0.2500    0.0000    0.0000
  band No.  band energies     occupation 
      1      -5.9777      2.00000
      2      -3.9209      2.00000
      3      -2.1544      2.00000
      4      -2.1544      2.00000
      5      -2.1544      2.00000
      6      -2.1544      2.00000
      7      -0.2164      2.00000
      8       2.1867      2.00000
      9       2.1867      2.00000
     10       2.1867      2.00000
     11       2.1867      2.00000
     12       2.9578      2.00000
     13       2.9578      2.00000
     14       4.1093      2.00000
     15       4.7024      2.00000
     16       4.7024      2.00000
     17       6.1486      0.00000
     18       7.0742      0.00000
     19       7.4710      0.00000
     20       7.4710      0.00000
     21       7.4710      0.00000
     22       7.4710      0.00000
     23       7.4919      0.00000
     24       9.1245      0.00000

 k-point     3 :       0.5000    0.0000    0.0000
  band No.  band energies     occupation 
      1      -5.1931      2.00000
      2      -5.1931      2.00000
      3      -2.0768      2.00000
      4      -2.0768      2.00000
      5      -2.0768      2.00000
      6      -2.0768      2.00000
      7       1.7741      2.00000
      8       1.7741      2.00000
      9       1.7741      2.00000
     10       1.7741      2.00000
     11       1.9543      2.00000
     12       1.9543      2.00000
     13       3.6538      2.00000
     14       3.6538      2.00000
     15       3.6538      2.00000
     16       3.6538      2.00000
     17       6.6401      0.00000
     18       6.6401      0.00000
     19       8.6096      0.00000
     20       8.6096      0.00000
     21       9.7471      0.00000
     22       9.7471      0.00000
     23       9.7471      0.00000
     24       9.7471      0.00000

 k-point     4 :       0.2500    0.2500    0.0000
  band No.  band energies     occupation 
      1      -5.7186      2.00000
      2      -3.7311      2.00000
      3      -3.7311      2.00000
      4      -2.6406      2.00000
      5      -1.6482      2.00000
      6      -0.4292      2.00000
      7      -0.4292      2.00000
      8       1.3412      2.00000
      9       2.2361      2.00000
     10       2.2361      2.00000
     11       2.8054      2.00000
     12       2.8206      2.00000
     13       2.8206      2.00000
     14       3.1319      2.00000
     15       3.9122      2.00000
     16       5.1882      2.00000
     17       6.7287      0.00000
     18       7.4364      0.00000
     19       7.4364      0.00000
     20       8.1412      0.00000
     21       8.1412      0.00000
     22       8.3895      0.00000
     23       8.5727      0.00000
     24       8.7867      0.00000

 k-point     5 :       0.5000    0.2500    0.0000
  band No.  band energies     occupation 
      1      -4.9543      2.00000
      2      -4.9543      2.00000
      3      -3.2306      2.00000
      4      -3.2306      2.00000
      5      -1.0105      2.00000
      6      -1.0105      2.00000
      7       1.2195      2.00000
      8       1.2195      2.00000
      9       1.4084      2.00000
     10       1.4084      2.00000
     11       2.8631      2.00000
     12       2.8631      2.00000
     13       2.9883      2.00000
     14       2.9883      2.00000
     15       4.0933      2.00000
     16       4.0933      2.00000
     17       7.9148      0.00000
     18       7.9148      0.00000
     19       8.3361      0.00000
     20       8.3361      0.00000
     21       9.2467      0.00000
     22       9.2467      0.00000
     23       9.6857      0.00000
     24       9.6857      0.00000

 k-point     6 :       0.5000    0.5000    0.0000
  band No.  band energies     occupation 
      1      -4.2653      2.00000
      2      -4.2653      2.00000
      3      -4.2653      2.00000
      4      -4.2653      2.00000
      5       0.0615      2.00000
      6       0.0615      2.00000
      7       0.0615      2.00000
      8       0.0615      2.00000
[...]
  212        strelo                                0.007022                            4   3
  213          m_sumb_d                              0.000416                          8   4
  214        strnlr                                0.987235                            4   3
  215          rspher_all                            0.123093                         36   4
  216          phaser                                0.501089                        360   4
  217          rpro_isp                              0.343102                        360   4
  218            fftwav_mpi                            0.081884                     2160   5
  219              fftwav                                0.075923                   2160   6
  220                fft3d                                 0.055369                 2160   7
  221            rpromu_acc                            0.207972                      720   5
  222          m_sumb_d                              0.000090                          4   4
  223        fft3d_mpi                             0.055971                           44   3
  224          fftbrc_mpi                            0.050678                         44   4
  225            fftbas_plan_mpi                       0.050636                       44   5
  226              dfftw_execute                         0.012665                    132   6
  227              map_forward                           0.011079                     40   6
  228                map_gather                            0.001981                   20   7
  229                m_alltoallv_z                         0.007555                   20   7
  230                map_scatter                           0.001481                   20   7
  231              map_backward                          0.025352                     48   6
  232                map_gather                            0.001735                   24   7
  233                m_alltoallv_z                         0.010876                   24   7
  234                map_scatter                           0.012681                   24   7
  235        ggaall_grid                           0.019080                            4   3
  236        m_sumb_d                              0.000820                           20   3
  237        forhar                                0.014612                            8   3
  238          m_sumb_d                              0.000586                          8   4
  239        strehar                               0.003935                            4   3
  240          m_sumb_d                              0.000331                          4   4
  241        chggra                                0.043348                            4   3
  242          fft3d_mpi                             0.036677                         12   4
  243            fftbrc_mpi                            0.034740                       12   5
  244              fftbas_plan_mpi                       0.034729                     12   6
  245                map_forward                           0.008316                   16   7
  246                  map_gather                            0.000055                  8   8
  247                  m_alltoallv_z                         0.008152                  8   8
  248                  map_scatter                           0.000048                  8   8
  249                map_backward                          0.000175                    8   7
  250                  map_gather                            0.000022                  4   8
  251                  m_alltoallv_z                         0.000101                  4   8
  252                  map_scatter                           0.000023                  4   8
  253          m_sumb_d                              0.000041                          8   4
  254          pothar                                0.001021                          4   4
  255            m_sumb_d                              0.000044                        4   5
  256        brmix                                 0.005268                            4   3
  257          m_sumb_d                              0.000077                         24   4
  258          brpre                                 0.000140                          4   4
  259          setg0                                 0.002727                          4   4
  260          broyd                                 0.001495                          4   4
  261            m_sumb_d                              0.000235                       48   5
  262            brget                                 0.000198                      136   5
  263            brsav                                 0.000151                       41   5
  264        m_bcast_d                             0.000109                            8   3
  265      potlok                                0.097502                              4   2
  266        fft3d_mpi                             0.060860                           52   3
  267          fftbrc_mpi                            0.054093                         52   4
  268            fftbas_plan_mpi                       0.054035                       52   5
  269              dfftw_execute                         0.014169                    156   6
  270              map_forward                           0.015099                     56   6
  271                map_gather                            0.002443                   32   7
  272                m_alltoallv_z                         0.010565                   32   7
  273                map_scatter                           0.002017                   32   7
  274              map_backward                          0.023136                     48   6
  275                map_gather                            0.001673                   24   7
  276                m_alltoallv_z                         0.009218                   24   7
  277                map_scatter                           0.012178                   24   7
  278        ggaall_grid                           0.019112                            4   3
  279        m_sumb_d                              0.000663                           20   3
  280        pothar                                0.002231                            4   3
  281          m_sumb_d                              0.000735                          4   4
  282        m_bcast_d                             0.000883                            4   3
  283      potlok_metagga                        0.000004                              4   2
  284      set_dd_magatom                        0.000016                              4   2
  285      set_dd_paw                            0.005135                              4   2
  286        set_rsgf_all                          0.000001                            4   3
  287        m_sumb_d                              0.000183                           28   3
  288      wavpre_noio                           0.017216                              3   2
  289        stufak                                0.002063                            3   3
  290      densta                                0.000221                              1   2
  291        m_sumb_d                              0.000063                            9   3
 
 Flat profile
 ============
 
             routine name                   CPU           calls
 ---------------------------------------------------------------
 hip_init_hipblas                        6.874591           1
 total_time                              4.634316           1
 eddav                                   4.433920          28
 init_hip                                1.850372           1
 m_sumb_d                                1.690278        9595
 lapack                                  1.112279        2611
 phaser                                  1.110349         800
 m_alltoall_d                            1.009220       39434
 rpromu_acc                              0.745547        2811
 fft3d                                   0.572394       18066
 hamiltmu                                0.455150        2611
 overl_mu                                0.413767        2611
 newband                                 0.365177        2891
 set_charge                              0.364531          24
 orth1                                   0.317567        7873
 racc0mu_acc                             0.242578        2611
 raccmu_                                 0.186918        2611
 m_alltoallv_z                           0.184753         524
 w1_copy                                 0.182581       15666
 rspher_all                              0.173980          53
 m_bcast_d                               0.173758        5259
 ggaall_grid                             0.152782          32
 ggemm                                   0.146631        3451
 fftwav                                  0.141730       12844
 redis_proj                              0.135906       18208
 map_scatter                             0.128824         524
 dfftw_execute                           0.128332        1380
 redis_pw                                0.113322       14626
 potlok                                  0.103105          28
 elmin                                   0.099489           4
 lincom                                  0.088955         320
 overl                                   0.088614        8804
 rpro_isp                                0.078200         520
 fft3d_mpi                               0.067504        5694
 setdij_                                 0.061291         133
 hip_hipfft_makeplan                     0.059837           6
 force_and_stress                        0.057781           4
 m_bcast_z                               0.054541        2851
 wfinit                                  0.054474           1
 augmentation_charge                     0.053958          24
 eccp                                    0.044950        1680
 orthch                                  0.044339           4
 fftbas_plan_mpi                         0.043193         472
 set_dd_paw                              0.040793          32
 choleski                                0.040442          40
 map_gather                              0.036696         524
 inisym                                  0.033491           1
 fftwav_mpi                              0.032031       12844
 vhamil                                  0.030108        5222
 kinhamil                                0.027075        5222
 fftext_mpi                              0.026246        5222
 apply_precond                           0.024870        3542
 strnlr                                  0.019861           4
 proall                                  0.018632           4
 setup_precond                           0.016869        1680
 setg0                                   0.016818          28
 wavpre_noio                             0.015153           3
 depsum                                  0.014580          24
 forhar                                  0.014026           8
 pothar                                  0.012503          32
 soft_charge                             0.011160          24
 forloc                                  0.008468           4
 brmix                                   0.007095          24
 strelo                                  0.006606           4
 fornlr                                  0.006232           4
 rsp                                     0.005761           4
 chggra                                  0.005609           4
 densta                                  0.005539          29
 pw_charge                               0.004039         960
 broyd                                   0.003981          24
 strehar                                 0.003604           4
 stufak                                  0.002724           4
 w1_projall                              0.002202        1771
 strkin                                  0.002120           4
 fewald                                  0.001499           4
 truncate_high_frequency_w1              0.001117        6902
 brpre                                   0.000970          24
 fft_gq                                  0.000903          24
 map_backward                            0.000743         488
 map_forward                             0.000736         456
 brsav                                   0.000686         186
 brget                                   0.000683         507
 hip_init_rocsolver                      0.000683           1
 fftbrc_mpi                              0.000443         472
 brgrid                                  0.000328           1
 vectorpot                               0.000167          25
 set_dd_magatom                          0.000162          32
 posmap                                  0.000153           2
 rcp                                     0.000141           4
 fordep                                  0.000103           4
 crpa_reader                             0.000061           1
 set_rsgf_all                            0.000055          32
 potlok_metagga                          0.000024          28
 hip_hipfft_makeplans                    0.000008           3
 rotate_active_occupied_orbital          0.000005           4
 redis_pw_over_bands                     0.000000           4
 ---------------------------------------------------------------
  summed up times    29.5467891693115     
 
 Accumulative profile
 ====================
 
             routine name                   CPU           calls
 ---------------------------------------------------------------
 total_time                             29.546789           1
 elmin                                  13.610395           4
 eddav                                  12.350957          28
 hip_init_hipblas                        6.874591           1
 init_hip                                1.850372           1
 m_sumb_d                                1.690278        9595
 force_and_stress                        1.681870           4
 hamiltmu                                1.515579        2611
 lapack                                  1.112279        2611
 phaser                                  1.110349         800
 m_alltoall_d                            1.009220       39434
 strnlr                                  0.987235           4
 raccmu_                                 0.843263        2611
 rpromu_acc                              0.745547        2811
 fft3d_mpi                               0.720838        5694
 potlok                                  0.696323          28
 redis_proj                              0.677753       18208
 newband                                 0.632610        2891
 fftwav_mpi                              0.616540       12844
 rpro_isp                                0.615548         520
 fftwav                                  0.584508       12844
 redis_pw                                0.580694       14626
 set_charge                              0.574075          24
 fft3d                                   0.572394       18066
 fftbrc_mpi                              0.523719         472
 fftbas_plan_mpi                         0.523277         472
 w1_projall                              0.447043        1771
 overl_mu                                0.413767        2611
 fornlr                                  0.327767           4
 orth1                                   0.317567        7873
 racc0mu_acc                             0.242578        2611
 proall                                  0.237697           4
 map_backward                            0.222632         488
 orthch                                  0.196646           4
 kinhamil                                0.187057        5222
 m_alltoallv_z                           0.184753         524
 w1_copy                                 0.182581       15666
 rspher_all                              0.173980          53
 m_bcast_d                               0.173758        5259
 fftext_mpi                              0.159983        5222
 ggaall_grid                             0.152782          32
 ggemm                                   0.146631        3451
 map_forward                             0.129120         456
 map_scatter                             0.128824         524
 dfftw_execute                           0.128332        1380
 augmentation_charge                     0.090294          24
 soft_charge                             0.089779          24
 lincom                                  0.088955         320
 overl                                   0.088614        8804
 wfinit                                  0.074076           1
 setdij_                                 0.065245         133
 hip_hipfft_makeplans                    0.059845           3
 hip_hipfft_makeplan                     0.059837           6
 m_bcast_z                               0.054541        2851
 eccp                                    0.044950        1680
 chggra                                  0.043348           4
 set_dd_paw                              0.042661          32
 choleski                                0.040442          40
 map_gather                              0.036696         524
 inisym                                  0.033644           1
 brmix                                   0.032498          24
 vhamil                                  0.030108        5222
 apply_precond                           0.024870        3542
 depsum                                  0.021353          24
 pothar                                  0.018786          32
 fft_gq                                  0.018662          24
 wavpre_noio                             0.017216           3
 setup_precond                           0.016869        1680
 setg0                                   0.016818          28
 forhar                                  0.014612           8
 fordep                                  0.011357           4
 forloc                                  0.009860           4
 fewald                                  0.007595           4
 strelo                                  0.007022           4
 densta                                  0.006812          29
 broyd                                   0.006428          24
 rsp                                     0.005761           4
 pw_charge                               0.004039         960
 strehar                                 0.003935           4
 stufak                                  0.002724           4
 strkin                                  0.002193           4
 truncate_high_frequency_w1              0.001117        6902
 brpre                                   0.000970          24
 brsav                                   0.000686         186
 brget                                   0.000683         507
 hip_init_rocsolver                      0.000683           1
 brgrid                                  0.000328           1
 vectorpot                               0.000167          25
 set_dd_magatom                          0.000162          32
 posmap                                  0.000153           2
 rcp                                     0.000141           4
 crpa_reader                             0.000061           1
 set_rsgf_all                            0.000055          32
 potlok_metagga                          0.000024          28
 rotate_active_occupied_orbital          0.000005           4
 redis_pw_over_bands                     0.000000           4
 ---------------------------------------------------------------
 
Profiling took   0.112744  0.029731  0.002578  0.002536 seconds
Profiling took   0.056175 seconds
