LAMMPS data file - synthetic two-atom LJ fixture for SimFlow dry-run example

2 atoms
1 atom types

0.0 8.0 xlo xhi
0.0 8.0 ylo yhi
0.0 8.0 zlo zhi

Masses

1 39.948

Atoms # atomic

1 1 3.5 4.0 4.0
2 1 4.5 4.0 4.0
