3
i =       0, time =       0.000, E =      -17.1000000000
O         0.000000    0.000000    0.000000
H         0.757000    0.586000    0.000000
H        -0.757000    0.586000    0.000000
3
i =       1, time =       0.500, E =      -17.0500000000
O         0.010000    0.000000    0.000000
H         0.767000    0.596000    0.000000
H        -0.747000    0.596000    0.000000
