#  Step Nr.  Time[fs]     Kin.[a.u.]    Temp[K]     Pot.[a.u.]     Cons Qty[a.u.]  UsedTime[s]
         1       0.500     0.100000    298.500    -17.100000     -17.000000       1.200
         2       1.000     0.110000    301.200    -17.050000     -16.940000       1.100
