       N       E                     dE             d eps       ncg     rms          rms(c)
DAV:   1     0.736732792900E+02    0.73673E+02   -0.12035E+04   480   0.108E+03
DAV:   2    -0.383156852738E+02   -0.11199E+03   -0.10241E+03   640   0.155E+02
DAV:   3    -0.439613424658E+02   -0.56457E+01   -0.55675E+01   624   0.325E+01
DAV:   4    -0.440558707029E+02   -0.94528E-01   -0.94342E-01   584   0.523E+00
DAV:   5    -0.440582747011E+02   -0.24040E-02   -0.24034E-02   608   0.784E-01    0.951E+00
DAV:   6    -0.435924219601E+02    0.46585E+00   -0.23368E-01   552   0.193E+00    0.582E+00
DAV:   7    -0.433770366772E+02    0.21539E+00   -0.49720E-01   536   0.294E+00    0.331E-01
DAV:   8    -0.433816143037E+02   -0.45776E-02   -0.27361E-02   560   0.747E-01    0.128E-01
DAV:   9    -0.433824285584E+02   -0.81425E-03   -0.12423E-03   600   0.184E-01    0.115E-01
DAV:  10    -0.433826500372E+02   -0.22148E-03   -0.47331E-04   560   0.996E-02    0.452E-02
DAV:  11    -0.433826508942E+02   -0.85702E-06   -0.93681E-06   592   0.151E-02
   1 F= -.43382651E+02 E0= -.43382651E+02  d E =-.294962E-12
