 vasp.6.4.2 20Jul23 (build Nov 02 2024 22:18:10) complex                        
  
 executed on             LinuxIFC date 2026.05.03  20:26:04
 running    4 mpi-ranks, with    6 threads/rank, on    1 nodes
 distrk:  each k-point on    4 cores,    1 groups
 distr:  one band on NCORE=   1 cores,    4 groups


--------------------------------------------------------------------------------------------------------


 INCAR:
   ALGO = Normal
   EDIFF = 1e-06
   ENCUT = 520.0
   ICHARG = 2
   ISMEAR = 0
   LCHARG = True
   LREAL = Auto
   LWAVE = True
   PREC = Accurate
   SIGMA = 0.05
   SYSTEM = Si_scf

 POTCAR:    PAW_PBE Si 05Jan2001                  
 POTCAR:    PAW_PBE Si 05Jan2001                  
   SHA256 =  79d9987ad8750f624c4d6acb2a16d13abf6a777132adc04dc6c8399be72b42bb Si/POTCAR             
   COPYR  = (c) Copyright 05Jan2001 Georg Kresse                                                    
   COPYR  = This file is part of the software VASP. Any use, copying, and all other rights are regul
   COPYR  = If you do not have a valid VASP license, you may not use, copy or distribute this file. 
   VRHFIN =Si: s2p2                                                                                 
   LEXCH  = PE                                                                                      
   EATOM  =   103.0669 eV,    7.5752 Ry                                                             
                                                                                                    
   TITEL  = PAW_PBE Si 05Jan2001                                                                    
   LULTRA =        F    use ultrasoft PP ?                                                          
   IUNSCR =        1    unscreen: 0-lin 1-nonlin 2-no                                               
   RPACOR =    1.500    partial core radius                                                         
   POMASS =   28.085; ZVAL   =    4.000    mass and valenz                                          
   RCORE  =    1.900    outmost cutoff radius                                                       
   RWIGS  =    2.480; RWIGS  =    1.312    wigner-seitz radius (au A)                               
   ENMAX  =  245.345; ENMIN  =  184.009 eV                                                          
   ICORE  =        2    local potential                                                             
   LCOR   =        T    correct aug charges                                                         
   LPAW   =        T    paw PP                                                                      
   EAUG   =  322.069                                                                                
   DEXC   =    0.000                                                                                
   RMAX   =    1.950    core radius for proj-oper                                                   
   RAUG   =    1.300    factor for augmentation sphere                                              
   RDEP   =    1.993    radius for radial grids                                                     
   RDEPT  =    1.837    core radius for aug-charge                                                  
                                                                                                    
   Atomic configuration                                                                             
    6 entries                                                                                       
     n  l   j            E        occ.                                                              
     1  0  0.50     -1785.8828   2.0000                                                             
     2  0  0.50      -139.4969   2.0000                                                             
     2  1  1.50       -95.5546   6.0000                                                             
     3  0  0.50       -10.8127   2.0000                                                             
     3  1  0.50        -4.0811   2.0000                                                             
     3  2  1.50        -4.0817   0.0000                                                             
   Description                                                                                      
     l       E           TYP  RCUT    TYP  RCUT                                                     
     0    -10.8127223     23  1.900                                                                 
     0     -7.6451159     23  1.900                                                                 
     1     -4.0811372     23  1.900                                                                 
     1      2.4879257     23  1.900                                                                 
     2     -4.0817478      7  1.900                                                                 
  local pseudopotential read in
  partial core-charges read in
  partial kinetic energy density read in
  atomic valenz-charges read in
  non local Contribution for L=           0  read in
    real space projection operators read in
  non local Contribution for L=           0  read in
    real space projection operators read in
  non local Contribution for L=           1  read in
    real space projection operators read in
  non local Contribution for L=           1  read in
    real space projection operators read in
    PAW grid and wavefunctions read in
 
   number of l-projection  operators is LMAX  =           4
   number of lm-projection operators is LMMAX =           8
 
 -----------------------------------------------------------------------------
|                                                                             |
|               ----> ADVICE to this user running VASP <----                  |
|                                                                             |
|     You have a (more or less) 'small supercell' and for smaller cells       |
|     it is recommended to use the reciprocal-space projection scheme!        |
|     The real-space optimization is not efficient for small cells and it     |
|     is also less accurate ...                                               |
|     Therefore, set LREAL=.FALSE. in the INCAR file.                         |
|                                                                             |
 -----------------------------------------------------------------------------

 Optimization of the real space projectors (new method)

 maximal supplied QI-value         = 19.84
 optimisation between [QCUT,QGAM] = [ 11.51, 23.22] = [ 37.09,150.92] Ry 
 Optimized for a Real-space Cutoff    1.21 Angstroem

   l    n(q)    QCUT    max X(q) W(low)/X(q) W(high)/X(q)  e(spline) 
   0      8    11.508   159.560    0.71E-04    0.15E-03    0.51E-07
   0      8    11.508   115.863    0.70E-04    0.15E-03    0.51E-07
   1      8    11.508    88.339    0.16E-03    0.38E-04    0.82E-07
   1      8    11.508    48.592    0.15E-03    0.36E-04    0.79E-07
  PAW_PBE Si 05Jan2001                  :
 energy of atom  1       EATOM= -103.0669
 kinetic energy error for atom=    0.0005 (will be added to EATOM!!)
 
 
 POSCAR: Si diamond Fd-3m from CIF
  positions in direct lattice
  velocities in cartesian coordinates
 exchange correlation table for  LEXCH =        8
   RHO(1)=    0.500       N(1)  =     2000
   RHO(2)=  100.500       N(2)  =     4000

 VTST: version 4.1, (05/19/21)

 CHAIN: initializing optimizer
 
 OPT: Using VASP Dynamics algorithm
 CHAIN: Read ICHAIN            0
 
 POSCAR: Si diamond Fd-3m from CIF
  positions in direct lattice
  velocities in cartesian coordinates
 


--------------------------------------------------------------------------------------------------------


 ion  position               nearest neighbor table
   1  0.000  0.000  0.000-   5 2.37   7 2.37   8 2.37   6 2.37
   2  0.000  0.500  0.500-   5 2.37   6 2.37   8 2.37   7 2.37
   3  0.500  0.500  0.000-   5 2.37   6 2.37   7 2.37   8 2.37
   4  0.500  0.000  0.500-   6 2.37   7 2.37   8 2.37   5 2.37
   5  0.750  0.250  0.750-   1 2.37   2 2.37   3 2.37   4 2.37
   6  0.250  0.250  0.250-   2 2.37   3 2.37   4 2.37   1 2.37
   7  0.250  0.750  0.750-   1 2.37   3 2.37   4 2.37   2 2.37
   8  0.750  0.750  0.250-   1 2.37   2 2.37   4 2.37   3 2.37
 
  LATTYP: Found a simple cubic cell.
 ALAT       =     5.4694575682
  
  Lattice vectors:
  
 A1 = (   5.4694575682,   0.0000000000,   0.0000000000)
 A2 = (   0.0000000000,   5.4694575682,   0.0000000000)
 A3 = (   0.0000000000,   0.0000000000,   5.4694575682)


Analysis of symmetry for initial positions (statically):
=====================================================================
 Subroutine PRICEL returns following result:
 
  LATTYP: Found a face centered cubic cell.
 ALAT       =     5.4694575682
  
  Lattice vectors:
  
 A1 = (   2.7347287841,  -2.7347287841,   0.0000000000)
 A2 = (   2.7347287841,   0.0000000000,   2.7347287841)
 A3 = (  -0.0000000000,  -2.7347287841,   2.7347287841)
 
   4 primitive cells build up your supercell.
 

 Routine SETGRP: Setting up the symmetry group for a 
 simple cubic supercell.


 Subroutine GETGRP returns: Found 48 space group operations
 (whereof 24 operations were pure point group operations)
 out of a pool of 48 trial point group operations.


The static configuration has the point symmetry T_d .
 The point group associated with its full space group is O_h .


Analysis of symmetry for dynamics (positions and initial velocities):
=====================================================================
 Subroutine PRICEL returns following result:
 
  LATTYP: Found a face centered cubic cell.
 ALAT       =     5.4694575682
  
  Lattice vectors:
  
 A1 = (   2.7347287841,  -2.7347287841,   0.0000000000)
 A2 = (   2.7347287841,   0.0000000000,   2.7347287841)
 A3 = (  -0.0000000000,  -2.7347287841,   2.7347287841)
 
   4 primitive cells build up your supercell.
 

 Routine SETGRP: Setting up the symmetry group for a 
 simple cubic supercell.


 Subroutine GETGRP returns: Found 48 space group operations
 (whereof 24 operations were pure point group operations)
 out of a pool of 48 trial point group operations.


The dynamic configuration has the point symmetry T_d .
 The point group associated with its full space group is O_h .


 Subroutine INISYM returns: Found 48 space group operations
 (whereof 24 operations are pure point group operations),
 and found     4 'primitive' translations


----------------------------------------------------------------------------------------

                                     Primitive cell                                     

  volume of cell :      40.9047

  direct lattice vectors                    reciprocal lattice vectors
     2.734728784 -2.734728784  0.000000000     0.182833487 -0.182833487 -0.182833487
     2.734728784  0.000000000  2.734728784     0.182833487  0.182833487  0.182833487
    -0.000000000 -2.734728784  2.734728784    -0.182833487 -0.182833487  0.182833487

  length of vectors
     3.867490536  3.867490536  3.867490536     0.316676889  0.316676889  0.316676889

  position of ions in fractional coordinates (direct lattice)
     0.000000000  0.000000000  0.000000000
     0.750000000  0.750000000  0.750000000

  ion indices of the primitive-cell ions
   primitive index   ion index
                 1           1
                 2           5

----------------------------------------------------------------------------------------

 
 
 KPOINTS: Si 8-atom cell, 4x4x4 Gamma-centered    

Automatic generation of k-mesh.
 Grid dimensions read from file:
 generate k-points for:    4    4    4

 Generating k-lattice:

  Cartesian coordinates                     Fractional coordinates (reciprocal lattice)
     0.045708372 -0.000000000  0.000000000     0.250000000 -0.000000000  0.000000000
     0.000000000  0.045708372  0.000000000     0.000000000  0.250000000  0.000000000
    -0.000000000 -0.000000000  0.045708372     0.000000000  0.000000000  0.250000000

  Length of vectors
     0.045708372  0.045708372  0.045708372

  Shift w.r.t. Gamma in fractional coordinates (k-lattice)
     0.000000000  0.000000000  0.000000000

 
 Subroutine IBZKPT returns following result:
 ===========================================
 
 Found     10 irreducible k-points:
 
 Following reciprocal coordinates:
            Coordinates               Weight
  0.000000  0.000000  0.000000      1.000000
  0.250000 -0.000000  0.000000      6.000000
  0.500000 -0.000000  0.000000      3.000000
  0.250000  0.250000  0.000000     12.000000
  0.500000  0.250000  0.000000     12.000000
  0.500000  0.500000  0.000000      3.000000
  0.250000  0.250000  0.250000      8.000000
  0.500000  0.250000  0.250000     12.000000
  0.500000  0.500000  0.250000      6.000000
  0.500000  0.500000  0.500000      1.000000
 
 Following cartesian coordinates:
            Coordinates               Weight
  0.000000  0.000000  0.000000      1.000000
  0.045708 -0.000000  0.000000      6.000000
  0.091417 -0.000000  0.000000      3.000000
  0.045708  0.045708  0.000000     12.000000
  0.091417  0.045708  0.000000     12.000000
  0.091417  0.091417  0.000000      3.000000
  0.045708  0.045708  0.045708      8.000000
  0.091417  0.045708  0.045708     12.000000
  0.091417  0.091417  0.045708      6.000000
  0.091417  0.091417  0.091417      1.000000
 


--------------------------------------------------------------------------------------------------------




 Dimension of arrays:
   k-points           NKPTS =     10   k-points in BZ     NKDIM =     10   number of bands    NBANDS=     24
   number of dos      NEDOS =    301   number of ions     NIONS =      8
   non local maximal  LDIM  =      4   non local SUM 2l+1 LMDIM =      8
   total plane-waves  NPLWV =  74088
   max r-space proj   IRMAX =   3416   max aug-charges    IRDMAX=  15337
   dimension x,y,z NGX =    42 NGY =   42 NGZ =   42
   dimension x,y,z NGXF=    84 NGYF=   84 NGZF=   84
   support grid    NGXF=    84 NGYF=   84 NGZF=   84
   ions per type =               8
   NGX,Y,Z   is equivalent  to a cutoff of  12.77, 12.77, 12.77 a.u.
   NGXF,Y,Z  is equivalent  to a cutoff of  25.53, 25.53, 25.53 a.u.

 SYSTEM =  Si_scf                                  
 POSCAR =  Si diamond Fd-3m from CIF               

 Startparameter for this run:
   NWRITE =      2    write-flag & timer
   PREC   = accura    normal or accurate (medium, high low for compatibility)
   ISTART =      0    job   : 0-new  1-cont  2-samecut
   ICHARG =      2    charge: 1-file 2-atom 10-const
   ISPIN  =      1    spin polarized calculation?
   LNONCOLLINEAR =      F non collinear calculations
   LSORBIT =      F    spin-orbit coupling
   INIWAV =      1    electr: 0-lowe 1-rand  2-diag
   LASPH  =      F    aspherical Exc in radial PAW
 Electronic Relaxation 1
   ENCUT  =  520.0 eV  38.22 Ry    6.18 a.u.  10.17 10.17 10.17*2*pi/ulx,y,z
   ENINI  =  520.0     initial cutoff
   ENAUG  =  322.1 eV  augmentation charge cutoff
   NELM   =     60;   NELMIN=  2; NELMDL= -5     # of ELM steps 
   EDIFF  = 0.1E-05   stopping-criterion for ELM
   LREAL  =      T    real-space projection
   NLSPLINE    = F    spline interpolate recip. space projectors
   LCOMPAT=      F    compatible to vasp.4.4
   GGA_COMPAT  = T    GGA compatible to vasp.4.4-vasp.4.6
   LMAXPAW     = -100 max onsite density
   LMAXMIX     =    2 max onsite mixed and CHGCAR
   VOSKOWN=      0    Vosko Wilk Nusair interpolation
   ROPT   =   -0.00025
 Ionic relaxation
   EDIFFG = 0.1E-04   stopping-criterion for IOM
   NSW    =      0    number of steps for IOM
   NBLOCK =      1;   KBLOCK =      1    inner block; outer block 
   IBRION =     -1    ionic relax: 0-MD 1-quasi-New 2-CG
   NFREE  =      0    steps in history (QN), initial steepest desc. (CG)
   ISIF   =      2    stress and relaxation
   IWAVPR =     10    prediction:  0-non 1-charg 2-wave 3-comb
   ISYM   =      2    0-nonsym 1-usesym 2-fastsym
   LCORR  =      T    Harris-Foulkes like correction to forces

   POTIM  = 0.5000    time-step for ionic-motion
   TEIN   =    0.0    initial temperature
   TEBEG  =    0.0;   TEEND  =   0.0 temperature during run
   SMASS  =  -3.00    Nose mass-parameter (am)
   estimated Nose-frequenzy (Omega)   =  0.10E-29 period in steps = 0.13E+47 mass=  -0.684E-27a.u.
   SCALEE = 1.0000    scale energy and forces
   NPACO  =    256;   APACO  = 10.0  distance and # of slots for P.C.
   PSTRESS=    0.0 pullay stress

  Mass of Ions in am
   POMASS =  28.09
  Ionic Valenz
   ZVAL   =   4.00
  Atomic Wigner-Seitz radii
   RWIGS  =  -1.00
  virtual crystal weights 
   VCA    =   1.00
   NELECT =      32.0000    total number of electrons
   NUPDOWN=      -1.0000    fix difference up-down

 DOS related values:
   EMIN   =  10.00;   EMAX   =-10.00  energy-range for DOS
   EFERMI =   0.00;   METHOD = LEGACY      
   ISMEAR =     0;   SIGMA  =   0.05  broadening in eV -4-tet -1-fermi 0-gaus

 Electronic relaxation 2 (details)
   IALGO  =     38    algorithm
   LDIAG  =      T    sub-space diagonalisation (order eigenvalues)
   LSUBROT=      F    optimize rotation matrix (better conditioning)
   TURBO    =      0    0=normal 1=particle mesh
   IRESTART =      0    0=no restart 2=restart with 2 vectors
   NREBOOT  =      0    no. of reboots
   NMIN     =      0    reboot dimension
   EREF     =   0.00    reference energy to select bands
   IMIX   =      4    mixing-type and parameters
     AMIX     =   0.40;   BMIX     =  1.00
     AMIX_MAG =   1.60;   BMIX_MAG =  1.00
     AMIN     =   0.10
     WC   =   100.;   INIMIX=   1;  MIXPRE=   1;  MAXMIX= -45

 Intra band minimization:
   WEIMIN = 0.0000     energy-eigenvalue tresh-hold
   EBREAK =  0.10E-07  absolut break condition
   DEPER  =   0.30     relativ break condition  

   TIME   =   0.40     timestep for ELM

  volume/ion in A,a.u.               =      20.45       138.02
  Fermi-wavevector in a.u.,A,eV,Ry     =   0.950270  1.795751 12.286251  0.903014
  Thomas-Fermi vector in A             =   2.078632
 
 Write flags
   LWAVE        =      T    write WAVECAR
   LDOWNSAMPLE  =      F    k-point downsampling of WAVECAR
   LCHARG       =      T    write CHGCAR
   LVTOT        =      F    write LOCPOT, total local potential
   LVHAR        =      F    write LOCPOT, Hartree potential only
   LELF         =      F    write electronic localiz. function (ELF)
   LORBIT       =      0    0 simple, 1 ext, 2 COOP (PROOUT), +10 PAW based schemes


 Dipole corrections
   LMONO  =      F    monopole corrections only (constant potential shift)
   LDIPOL =      F    correct potential (dipole corrections)
   IDIPOL =      0    1-x, 2-y, 3-z, 4-all directions 
   EPSILON=  1.0000000 bulk dielectric constant

 Exchange correlation treatment:
   GGA     =    --    GGA type
   LEXCH   =     8    internal setting for exchange type
   LIBXC   =     F    Libxc                    
   VOSKOWN =     0    Vosko Wilk Nusair interpolation
   LHFCALC =     F    Hartree Fock is set to
   LHFONE  =     F    Hartree Fock one center treatment
   AEXX    =    0.0000 exact exchange contribution

 Linear response parameters
   LEPSILON=     F    determine dielectric tensor
   LRPA    =     F    only Hartree local field effects (RPA)
   LNABLA  =     F    use nabla operator in PAW spheres
   LVEL    =     F    velocity operator in full k-point grid
   CSHIFT  =0.1000    complex shift for real part using Kramers Kronig
   OMEGAMAX=  -1.0    maximum frequency
   DEG_THRESHOLD= 0.2000000E-02 threshold for treating states as degnerate
   RTIME   =   -0.100 relaxation time in fs
  (WPLASMAI=    0.000 imaginary part of plasma frequency in eV, 0.658/RTIME)
   DFIELD  = 0.0000000 0.0000000 0.0000000 field for delta impulse in time
 
  Optional k-point grid parameters
   LKPOINTS_OPT  =     F    use optional k-point grid
   KPOINTS_OPT_MODE=     1    mode for optional k-point grid
 
 Orbital magnetization related:
   ORBITALMAG=     F  switch on orbital magnetization
   LCHIMAG   =     F  perturbation theory with respect to B field
   DQ        =  0.001000  dq finite difference perturbation B field
   LLRAUG    =     F  two centre corrections for induced B field
   LBONE     =     F  B-component reconstruction in AE one-centre
   LVGVCALC  =     T  calculate vGv susceptibility
   LVGVAPPL  =     F  apply vGv susceptibility instead of pGv for G=0

 Random number generation:
   RANDOM_GENERATOR = DEFAULT
   PCG_SEED         = not used


--------------------------------------------------------------------------------------------------------


 Static calculation
 charge density and potential will be updated during run
 non-spin polarized calculation
 Variant of blocked Davidson
 Davidson routine will perform the subspace rotation
 perform sub-space diagonalisation
    after iterative eigenvector-optimisation
 modified Broyden-mixing scheme, WC =      100.0
 initial mixing is a Kerker type mixing with AMIX =  0.4000 and BMIX =      1.0000
 Hartree-type preconditioning will be used
 using additional bands            8
 real space projection scheme for non local part
 use partial core corrections
 calculate Harris-corrections to forces 
   (improved forces if not selfconsistent)
 use gradient corrections 
 use of overlap-Matrix (Vanderbilt PP)
 Gauss-broadening in eV      SIGMA  =   0.05


--------------------------------------------------------------------------------------------------------


  energy-cutoff  :      520.00
  volume of cell :      163.62
      direct lattice vectors                 reciprocal lattice vectors
     5.469457568  0.000000000  0.000000000     0.182833487 -0.000000000  0.000000000
     0.000000000  5.469457568  0.000000000     0.000000000  0.182833487  0.000000000
     0.000000000  0.000000000  5.469457568    -0.000000000 -0.000000000  0.182833487

  length of vectors
     5.469457568  5.469457568  5.469457568     0.182833487  0.182833487  0.182833487


 
 k-points in units of 2pi/SCALE and weight: Si 8-atom cell, 4x4x4 Gamma-centered    
   0.00000000  0.00000000  0.00000000       0.016
   0.04570837 -0.00000000  0.00000000       0.094
   0.09141674 -0.00000000  0.00000000       0.047
   0.04570837  0.04570837  0.00000000       0.188
   0.09141674  0.04570837  0.00000000       0.188
   0.09141674  0.09141674  0.00000000       0.047
   0.04570837  0.04570837  0.04570837       0.125
   0.09141674  0.04570837  0.04570837       0.188
   0.09141674  0.09141674  0.04570837       0.094
   0.09141674  0.09141674  0.09141674       0.016
 
 k-points in reciprocal lattice and weights: Si 8-atom cell, 4x4x4 Gamma-centered    
   0.00000000  0.00000000  0.00000000       0.016
   0.25000000 -0.00000000  0.00000000       0.094
   0.50000000 -0.00000000  0.00000000       0.047
   0.25000000  0.25000000  0.00000000       0.188
   0.50000000  0.25000000  0.00000000       0.188
   0.50000000  0.50000000  0.00000000       0.047
   0.25000000  0.25000000  0.25000000       0.125
   0.50000000  0.25000000  0.25000000       0.188
   0.50000000  0.50000000  0.25000000       0.094
   0.50000000  0.50000000  0.50000000       0.016
 
 position of ions in fractional coordinates (direct lattice) 
   0.00000000  0.00000000  0.00000000
   0.00000000  0.50000000  0.50000000
   0.50000000  0.50000000  0.00000000
   0.50000000  0.00000000  0.50000000
   0.75000000  0.25000000  0.75000000
   0.25000000  0.25000000  0.25000000
   0.25000000  0.75000000  0.75000000
   0.75000000  0.75000000  0.25000000
 
 position of ions in cartesian coordinates  (Angst):
   0.00000000  0.00000000  0.00000000
   0.00000000  2.73472878  2.73472878
   2.73472878  2.73472878  0.00000000
   2.73472878  0.00000000  2.73472878
   4.10209318  1.36736439  4.10209318
   1.36736439  1.36736439  1.36736439
   1.36736439  4.10209318  4.10209318
   4.10209318  4.10209318  1.36736439
 


--------------------------------------------------------------------------------------------------------


 k-point   1 :   0.0000 0.0000 0.0000  plane waves:    4385
 k-point   2 :   0.2500-0.0000 0.0000  plane waves:    4408
 k-point   3 :   0.5000-0.0000 0.0000  plane waves:    4436
 k-point   4 :   0.2500 0.2500 0.0000  plane waves:    4396
 k-point   5 :   0.5000 0.2500 0.0000  plane waves:    4396
 k-point   6 :   0.5000 0.5000 0.0000  plane waves:    4388
 k-point   7 :   0.2500 0.2500 0.2500  plane waves:    4401
 k-point   8 :   0.5000 0.2500 0.2500  plane waves:    4426
 k-point   9 :   0.5000 0.5000 0.2500  plane waves:    4428
 k-point  10 :   0.5000 0.5000 0.5000  plane waves:    4416

 maximum and minimum number of plane-waves per node :      4436     4385

 maximum number of plane-waves:      4436
 maximum index in each direction: 
   IXMAX=   10   IYMAX=   10   IZMAX=   10
   IXMIN=  -10   IYMIN=  -10   IZMIN=  -10


 serial   3D FFT for wavefunctions
 parallel 3D FFT for charge:
    minimum data exchange during FFTs selected (reduces bandwidth)


 total amount of memory used by VASP MPI-rank0    52225. kBytes
=======================================================================

   base      :      30000. kBytes
   nonlr-proj:       2263. kBytes
   fftplans  :       5401. kBytes
   grid      :      10217. kBytes
   one-center:         24. kBytes
   wavefun   :       4320. kBytes
 
     INWAV:  cpu time      0.0002: real time      0.0000
 Broyden mixing: mesh for mixing (old mesh)
   NGX = 21   NGY = 21   NGZ = 21
  (NGX  = 84   NGY  = 84   NGZ  = 84)
  gives a total of   9261 points

 initial charge density was supplied:
 charge density of overlapping atoms calculated
 number of electron      32.0000000 magnetization 
 keeping initial charge density in first step


--------------------------------------------------------------------------------------------------------


 Maximum index for non-local projection operator         3239
 Maximum index for augmentation-charges         3712 (set IRDMAX)


--------------------------------------------------------------------------------------------------------


 First call to EWALD:  gamma=   0.324
 Maximum number of real-space cells 3x 3x 3
 Maximum number of reciprocal cells 3x 3x 3

    FEWALD:  cpu time      0.0116: real time      0.0042


--------------------------------------- Ionic step        1  -------------------------------------------




--------------------------------------- Iteration      1(   1)  ---------------------------------------


    POTLOK:  cpu time      0.2218: real time      0.0485
    SETDIJ:  cpu time      0.0248: real time      0.0061
     EDDAV:  cpu time      3.1808: real time      0.5356
       DOS:  cpu time      0.0075: real time      0.0013
    --------------------------------------------
      LOOP:  cpu time      3.4353: real time      0.5916

 eigenvalue-minimisations  :   480
 total energy-change (2. order) : 0.7367328E+02  (-0.1203538E+04)
 number of electron      32.0000000 magnetization 
 augmentation part       32.0000000 magnetization 

 Free energy of the ion-electron system (eV)
  ---------------------------------------------------
  alpha Z        PSCENC =        13.16745086
  Ewald energy   TEWEN  =      -907.65855257
  -Hartree energ DENC   =       -45.31793382
  -exchange      EXHF   =         0.00000000
  -V(xc)+E(xc)   XCENC  =       -74.74693281
  PAW double counting   =       704.99039692     -564.24414232
  entropy T*S    EENTRO =        -0.00534779
  eigenvalues    EBANDS =       122.95752989
  atomic energy  EATOM  =       824.53081094
  Solvation  Ecorr_sol  =         0.00000000
  ---------------------------------------------------
  free energy    TOTEN  =        73.67327929 eV

  energy without entropy =       73.67862708  energy(sigma->0) =       73.67595318


--------------------------------------------------------------------------------------------------------




--------------------------------------- Iteration      1(   2)  ---------------------------------------


     EDDAV:  cpu time      3.1300: real time      0.4795
       DOS:  cpu time      0.0023: real time      0.0004
    --------------------------------------------
      LOOP:  cpu time      3.1322: real time      0.4799

 eigenvalue-minimisations  :   640
 total energy-change (2. order) :-0.1119890E+03  (-0.1024078E+03)
 number of electron      32.0000000 magnetization 
 augmentation part       32.0000000 magnetization 

 Free energy of the ion-electron system (eV)
  ---------------------------------------------------
  alpha Z        PSCENC =        13.16745086
  Ewald energy   TEWEN  =      -907.65855257
  -Hartree energ DENC   =       -45.31793382
  -exchange      EXHF   =         0.00000000
  -V(xc)+E(xc)   XCENC  =       -74.74693281
  PAW double counting   =       704.99039692     -564.24414232
  entropy T*S    EENTRO =        -0.00000000
  eigenvalues    EBANDS =        10.96321754
  atomic energy  EATOM  =       824.53081094
  Solvation  Ecorr_sol  =         0.00000000
  ---------------------------------------------------
  free energy    TOTEN  =       -38.31568527 eV

  energy without entropy =      -38.31568527  energy(sigma->0) =      -38.31568527


--------------------------------------------------------------------------------------------------------




--------------------------------------- Iteration      1(   3)  ---------------------------------------


     EDDAV:  cpu time      3.0729: real time      0.4685
       DOS:  cpu time      0.0023: real time      0.0004
    --------------------------------------------
      LOOP:  cpu time      3.0752: real time      0.4688

 eigenvalue-minimisations  :   624
 total energy-change (2. order) :-0.5645657E+01  (-0.5567513E+01)
 number of electron      32.0000000 magnetization 
 augmentation part       32.0000000 magnetization 

 Free energy of the ion-electron system (eV)
  ---------------------------------------------------
  alpha Z        PSCENC =        13.16745086
  Ewald energy   TEWEN  =      -907.65855257
  -Hartree energ DENC   =       -45.31793382
  -exchange      EXHF   =         0.00000000
  -V(xc)+E(xc)   XCENC  =       -74.74693281
  PAW double counting   =       704.99039692     -564.24414232
  entropy T*S    EENTRO =        -0.00000000
  eigenvalues    EBANDS =         5.31756035
  atomic energy  EATOM  =       824.53081094
  Solvation  Ecorr_sol  =         0.00000000
  ---------------------------------------------------
  free energy    TOTEN  =       -43.96134247 eV

  energy without entropy =      -43.96134247  energy(sigma->0) =      -43.96134247


--------------------------------------------------------------------------------------------------------




--------------------------------------- Iteration      1(   4)  ---------------------------------------


     EDDAV:  cpu time      2.9159: real time      0.4451
       DOS:  cpu time      0.0024: real time      0.0004
    --------------------------------------------
      LOOP:  cpu time      2.9183: real time      0.4455

 eigenvalue-minimisations  :   584
 total energy-change (2. order) :-0.9452824E-01  (-0.9434242E-01)
 number of electron      32.0000000 magnetization 
 augmentation part       32.0000000 magnetization 

 Free energy of the ion-electron system (eV)
  ---------------------------------------------------
  alpha Z        PSCENC =        13.16745086
  Ewald energy   TEWEN  =      -907.65855257
  -Hartree energ DENC   =       -45.31793382
  -exchange      EXHF   =         0.00000000
  -V(xc)+E(xc)   XCENC  =       -74.74693281
  PAW double counting   =       704.99039692     -564.24414232
  entropy T*S    EENTRO =        -0.00000000
  eigenvalues    EBANDS =         5.22303211
  atomic energy  EATOM  =       824.53081094
  Solvation  Ecorr_sol  =         0.00000000
  ---------------------------------------------------
  free energy    TOTEN  =       -44.05587070 eV

  energy without entropy =      -44.05587070  energy(sigma->0) =      -44.05587070


--------------------------------------------------------------------------------------------------------




--------------------------------------- Iteration      1(   5)  ---------------------------------------


     EDDAV:  cpu time      2.9953: real time      0.4571
       DOS:  cpu time      0.0023: real time      0.0004
    CHARGE:  cpu time      0.1791: real time      0.0312
    MIXING:  cpu time      0.0196: real time      0.0038
    --------------------------------------------
      LOOP:  cpu time      3.1964: real time      0.4925

 eigenvalue-minimisations  :   608
 total energy-change (2. order) :-0.2403998E-02  (-0.2403405E-02)
 number of electron      31.9999994 magnetization 
 augmentation part       -1.8776048 magnetization 

 Broyden mixing:
  rms(total) = 0.95125E+00    rms(broyden)= 0.95125E+00
  rms(prec ) = 0.13272E+01
  weight for this iteration     100.00

 Free energy of the ion-electron system (eV)
  ---------------------------------------------------
  alpha Z        PSCENC =        13.16745086
  Ewald energy   TEWEN  =      -907.65855257
  -Hartree energ DENC   =       -45.31793382
  -exchange      EXHF   =         0.00000000
  -V(xc)+E(xc)   XCENC  =       -74.74693281
  PAW double counting   =       704.99039692     -564.24414232
  entropy T*S    EENTRO =        -0.00000000
  eigenvalues    EBANDS =         5.22062811
  atomic energy  EATOM  =       824.53081094
  Solvation  Ecorr_sol  =         0.00000000
  ---------------------------------------------------
  free energy    TOTEN  =       -44.05827470 eV

  energy without entropy =      -44.05827470  energy(sigma->0) =      -44.05827470


--------------------------------------------------------------------------------------------------------




--------------------------------------- Iteration      1(   6)  ---------------------------------------


    POTLOK:  cpu time      0.2021: real time      0.0337
    SETDIJ:  cpu time      0.0135: real time      0.0022
     EDDAV:  cpu time      2.7808: real time      0.4248
       DOS:  cpu time      0.0023: real time      0.0004
    CHARGE:  cpu time      0.1660: real time      0.0273
    MIXING:  cpu time      0.0104: real time      0.0017
    --------------------------------------------
      LOOP:  cpu time      3.1752: real time      0.4902

 eigenvalue-minimisations  :   552
 total energy-change (2. order) : 0.4658527E+00  (-0.2336841E-01)
 number of electron      31.9999994 magnetization 
 augmentation part       -1.8560428 magnetization 

 Broyden mixing:
  rms(total) = 0.58182E+00    rms(broyden)= 0.58182E+00
  rms(prec ) = 0.79921E+00
  weight for this iteration     100.00

 eigenvalues of (default mixing * dielectric matrix)
  average eigenvalue GAMMA=   2.5672
  2.5672

 Free energy of the ion-electron system (eV)
  ---------------------------------------------------
  alpha Z        PSCENC =        13.16745086
  Ewald energy   TEWEN  =      -907.65855257
  -Hartree energ DENC   =       -51.18742839
  -exchange      EXHF   =         0.00000000
  -V(xc)+E(xc)   XCENC  =       -73.82508172
  PAW double counting   =      1485.41957868    -1345.08353586
  entropy T*S    EENTRO =        -0.00000000
  eigenvalues    EBANDS =        11.04433610
  atomic energy  EATOM  =       824.53081094
  Solvation  Ecorr_sol  =         0.00000000
  ---------------------------------------------------
  free energy    TOTEN  =       -43.59242196 eV

  energy without entropy =      -43.59242196  energy(sigma->0) =      -43.59242196


--------------------------------------------------------------------------------------------------------




--------------------------------------- Iteration      1(   7)  ---------------------------------------


    POTLOK:  cpu time      0.1982: real time      0.0330
    SETDIJ:  cpu time      0.0137: real time      0.0023
     EDDAV:  cpu time      2.7368: real time      0.4172
       DOS:  cpu time      0.0024: real time      0.0004
    CHARGE:  cpu time      0.1656: real time      0.0273
    MIXING:  cpu time      0.0087: real time      0.0015
    --------------------------------------------
      LOOP:  cpu time      3.1255: real time      0.4817

 eigenvalue-minimisations  :   536
 total energy-change (2. order) : 0.2153853E+00  (-0.4972028E-01)
 number of electron      31.9999994 magnetization 
 augmentation part       -1.8278856 magnetization 

 Broyden mixing:
  rms(total) = 0.33107E-01    rms(broyden)= 0.33107E-01
  rms(prec ) = 0.55331E-01
  weight for this iteration     100.00

 eigenvalues of (default mixing * dielectric matrix)
  average eigenvalue GAMMA=   2.2210
  2.2210  2.2210

 Free energy of the ion-electron system (eV)
  ---------------------------------------------------
  alpha Z        PSCENC =        13.16745086
  Ewald energy   TEWEN  =      -907.65855257
  -Hartree energ DENC   =       -61.03602599
  -exchange      EXHF   =         0.00000000
  -V(xc)+E(xc)   XCENC  =       -72.24485600
  PAW double counting   =      3375.55829945    -3235.76024370
  entropy T*S    EENTRO =        -0.00000000
  eigenvalues    EBANDS =        20.06608033
  atomic energy  EATOM  =       824.53081094
  Solvation  Ecorr_sol  =         0.00000000
  ---------------------------------------------------
  free energy    TOTEN  =       -43.37703668 eV

  energy without entropy =      -43.37703668  energy(sigma->0) =      -43.37703668


--------------------------------------------------------------------------------------------------------




--------------------------------------- Iteration      1(   8)  ---------------------------------------


    POTLOK:  cpu time      0.1973: real time      0.0329
    SETDIJ:  cpu time      0.0133: real time      0.0022
     EDDAV:  cpu time      2.8103: real time      0.4292
       DOS:  cpu time      0.0025: real time      0.0004
    CHARGE:  cpu time      0.1633: real time      0.0269
    MIXING:  cpu time      0.0100: real time      0.0017
    --------------------------------------------
      LOOP:  cpu time      3.1966: real time      0.4932

 eigenvalue-minimisations  :   560
 total energy-change (2. order) :-0.4577626E-02  (-0.2736090E-02)
 number of electron      31.9999994 magnetization 
 augmentation part       -1.8318371 magnetization 

 Broyden mixing:
  rms(total) = 0.12754E-01    rms(broyden)= 0.12754E-01
  rms(prec ) = 0.19668E-01
  weight for this iteration     100.00

 eigenvalues of (default mixing * dielectric matrix)
  average eigenvalue GAMMA=   2.3132
  2.8200  2.0599  2.0599

 Free energy of the ion-electron system (eV)
  ---------------------------------------------------
  alpha Z        PSCENC =        13.16745086
  Ewald energy   TEWEN  =      -907.65855257
  -Hartree energ DENC   =       -60.48921099
  -exchange      EXHF   =         0.00000000
  -V(xc)+E(xc)   XCENC  =       -72.28734639
  PAW double counting   =      3347.85165576    -3207.93152650
  entropy T*S    EENTRO =        -0.00000000
  eigenvalues    EBANDS =        19.43510459
  atomic energy  EATOM  =       824.53081094
  Solvation  Ecorr_sol  =         0.00000000
  ---------------------------------------------------
  free energy    TOTEN  =       -43.38161430 eV

  energy without entropy =      -43.38161430  energy(sigma->0) =      -43.38161430


--------------------------------------------------------------------------------------------------------




--------------------------------------- Iteration      1(   9)  ---------------------------------------


    POTLOK:  cpu time      0.1964: real time      0.0327
    SETDIJ:  cpu time      0.0133: real time      0.0022
     EDDAV:  cpu time      2.9142: real time      0.4446
       DOS:  cpu time      0.0023: real time      0.0004
    CHARGE:  cpu time      0.1660: real time      0.0274
    MIXING:  cpu time      0.0087: real time      0.0015
    --------------------------------------------
      LOOP:  cpu time      3.3010: real time      0.5088

 eigenvalue-minimisations  :   600
 total energy-change (2. order) :-0.8142547E-03  (-0.1242251E-03)
 number of electron      31.9999994 magnetization 
 augmentation part       -1.8318974 magnetization 

 Broyden mixing:
  rms(total) = 0.11456E-01    rms(broyden)= 0.11456E-01
  rms(prec ) = 0.12973E-01
  weight for this iteration     100.00

 eigenvalues of (default mixing * dielectric matrix)
  average eigenvalue GAMMA=   2.3698
  0.9990  3.6924  2.5683  2.2195

 Free energy of the ion-electron system (eV)
  ---------------------------------------------------
  alpha Z        PSCENC =        13.16745086
  Ewald energy   TEWEN  =      -907.65855257
  -Hartree energ DENC   =       -60.75755465
  -exchange      EXHF   =         0.00000000
  -V(xc)+E(xc)   XCENC  =       -72.24292007
  PAW double counting   =      3364.12187474    -3224.20623871
  entropy T*S    EENTRO =        -0.00000000
  eigenvalues    EBANDS =        19.66270091
  atomic energy  EATOM  =       824.53081094
  Solvation  Ecorr_sol  =         0.00000000
  ---------------------------------------------------
  free energy    TOTEN  =       -43.38242856 eV

  energy without entropy =      -43.38242856  energy(sigma->0) =      -43.38242856


--------------------------------------------------------------------------------------------------------




--------------------------------------- Iteration      1(  10)  ---------------------------------------


    POTLOK:  cpu time      0.1985: real time      0.0331
    SETDIJ:  cpu time      0.0134: real time      0.0022
     EDDAV:  cpu time      2.8332: real time      0.4322
       DOS:  cpu time      0.0023: real time      0.0004
    CHARGE:  cpu time      0.1667: real time      0.0275
    MIXING:  cpu time      0.0092: real time      0.0015
    --------------------------------------------
      LOOP:  cpu time      3.2232: real time      0.4970

 eigenvalue-minimisations  :   560
 total energy-change (2. order) :-0.2214788E-03  (-0.4733058E-04)
 number of electron      31.9999994 magnetization 
 augmentation part       -1.8321428 magnetization 

 Broyden mixing:
  rms(total) = 0.45205E-02    rms(broyden)= 0.45205E-02
  rms(prec ) = 0.46763E-02
  weight for this iteration     100.00

 eigenvalues of (default mixing * dielectric matrix)
  average eigenvalue GAMMA=   1.9149
  3.0466  2.3922  2.2005  0.9675  0.9675

 Free energy of the ion-electron system (eV)
  ---------------------------------------------------
  alpha Z        PSCENC =        13.16745086
  Ewald energy   TEWEN  =      -907.65855257
  -Hartree energ DENC   =       -60.76448542
  -exchange      EXHF   =         0.00000000
  -V(xc)+E(xc)   XCENC  =       -72.24275352
  PAW double counting   =      3304.10865181    -3164.18470242
  entropy T*S    EENTRO =        -0.00000000
  eigenvalues    EBANDS =        19.66093027
  atomic energy  EATOM  =       824.53081094
  Solvation  Ecorr_sol  =         0.00000000
  ---------------------------------------------------
  free energy    TOTEN  =       -43.38265004 eV

  energy without entropy =      -43.38265004  energy(sigma->0) =      -43.38265004


--------------------------------------------------------------------------------------------------------




--------------------------------------- Iteration      1(  11)  ---------------------------------------


    POTLOK:  cpu time      0.1944: real time      0.0324
    SETDIJ:  cpu time      0.0132: real time      0.0022
     EDDAV:  cpu time      2.8975: real time      0.4428
       DOS:  cpu time      0.0023: real time      0.0004
    --------------------------------------------
      LOOP:  cpu time      3.1074: real time      0.4777

 eigenvalue-minimisations  :   592
 total energy-change (2. order) :-0.8570175E-06  (-0.9368098E-06)
 number of electron      31.9999994 magnetization 
 augmentation part       -1.8321428 magnetization 

 Free energy of the ion-electron system (eV)
  ---------------------------------------------------
  alpha Z        PSCENC =        13.16745086
  Ewald energy   TEWEN  =      -907.65855257
  -Hartree energ DENC   =       -60.76880724
  -exchange      EXHF   =         0.00000000
  -V(xc)+E(xc)   XCENC  =       -72.24145772
  PAW double counting   =      3318.29225991    -3178.36818990
  entropy T*S    EENTRO =        -0.00000000
  eigenvalues    EBANDS =        19.66383482
  atomic energy  EATOM  =       824.53081094
  Solvation  Ecorr_sol  =         0.00000000
  ---------------------------------------------------
  free energy    TOTEN  =       -43.38265089 eV

  energy without entropy =      -43.38265089  energy(sigma->0) =      -43.38265089


--------------------------------------------------------------------------------------------------------




 average (electrostatic) potential at core
  the test charge radii are     0.9892
  (the norm of the test charge is              1.0000)
       1 -83.4845       2 -83.4845       3 -83.4845       4 -83.4845       5 -83.4845
       6 -83.4845       7 -83.4845       8 -83.4845
 
 
 
 E-fermi :   5.8498     XC(G=0):  -9.3247     alpha+bet :-11.7270

 Fermi energy:         5.8497661362

 k-point     1 :       0.0000    0.0000    0.0000
  band No.  band energies     occupation 
      1      -6.1986      2.00000
      2      -2.1313      2.00000
      3      -2.1313      2.00000
      4      -2.1313      2.00000
      5      -2.1313      2.00000
      6      -2.1313      2.00000
      7      -2.1313      2.00000
      8       2.8207      2.00000
      9       2.8207      2.00000
     10       2.8207      2.00000
     11       2.8207      2.00000
     12       2.8207      2.00000
     13       2.8207      2.00000
     14       5.6141      2.00000
     15       5.6141      2.00000
     16       5.6141      2.00000
     17       6.3656      0.00000
     18       6.3656      0.00000
     19       6.3656      0.00000
     20       6.3656      0.00000
     21       6.3656      0.00000
     22       6.3656      0.00000
     23       8.1701      0.00000
     24       8.1701      0.00000

 k-point     2 :       0.2500   -0.0000    0.0000
  band No.  band energies     occupation 
      1      -5.9306      2.00000
      2      -3.8482      2.00000
      3      -2.0576      2.00000
      4      -2.0576      2.00000
      5      -2.0576      2.00000
      6      -2.0576      2.00000
      7      -0.0977      2.00000
      8       2.2758      2.00000
      9       2.2758      2.00000
     10       2.2758      2.00000
     11       2.2758      2.00000
     12       3.0621      2.00000
     13       3.0621      2.00000
     14       4.2615      2.00000
     15       4.8277      2.00000
     16       4.8277      2.00000
     17       6.2644      0.00000
     18       7.1898      0.00000
     19       7.5998      0.00000
     20       7.5998      0.00000
     21       7.5998      0.00000
     22       7.5998      0.00000
     23       7.6290      0.00000
     24       9.2847      0.00000

 k-point     3 :       0.5000   -0.0000    0.0000
  band No.  band energies     occupation 
      1      -5.1363      2.00000
      2      -5.1363      2.00000
      3      -1.9768      2.00000
      4      -1.9768      2.00000
      5      -1.9768      2.00000
      6      -1.9768      2.00000
      7       1.8541      2.00000
      8       1.8541      2.00000
      9       1.8541      2.00000
     10       1.8541      2.00000
     11       2.0955      2.00000
     12       2.0955      2.00000
     13       3.7660      2.00000
     14       3.7660      2.00000
     15       3.7660      2.00000
     16       3.7660      2.00000
     17       6.7653      0.00000
     18       6.7653      0.00000
     19       8.7491      0.00000
     20       8.7491      0.00000
     21       9.8838      0.00000
     22       9.8838      0.00000
     23       9.8838      0.00000
     24       9.8838      0.00000

 k-point     4 :       0.2500    0.2500    0.0000
  band No.  band energies     occupation 
      1      -5.6682      2.00000
      2      -3.6549      2.00000
      3      -3.6549      2.00000
      4      -2.5461      2.00000
      5      -1.5490      2.00000
      6      -0.3129      2.00000
      7      -0.3129      2.00000
      8       1.4149      2.00000
      9       2.3271      2.00000
     10       2.3271      2.00000
     11       2.9189      2.00000
     12       2.9189      2.00000
     13       2.9396      2.00000
     14       3.2390      2.00000
     15       4.0254      2.00000
     16       5.3243      2.00000
     17       6.8481      0.00000
     18       7.5695      0.00000
     19       7.5695      0.00000
     20       8.2725      0.00000
     21       8.2725      0.00000
     22       8.5810      0.00000
     23       8.7223      0.00000
     24       8.9440      0.00000

 k-point     5 :       0.5000    0.2500    0.0000
  band No.  band energies     occupation 
      1      -4.8941      2.00000
      2      -4.8941      2.00000
      3      -3.1452      2.00000
      4      -3.1452      2.00000
      5      -0.9034      2.00000
      6      -0.9034      2.00000
      7       1.3461      2.00000
      8       1.3461      2.00000
      9       1.4849      2.00000
     10       1.4849      2.00000
     11       2.9627      2.00000
     12       2.9627      2.00000
     13       3.0895      2.00000
     14       3.0895      2.00000
     15       4.2142      2.00000
     16       4.2142      2.00000
     17       8.0567      0.00000
     18       8.0567      0.00000
     19       8.4781      0.00000
     20       8.4781      0.00000
     21       9.4396      0.00000
     22       9.4396      0.00000
     23       9.8167      0.00000
     24       9.8170      0.00000

 k-point     6 :       0.5000    0.5000    0.0000
  band No.  band energies     occupation 
      1      -4.1951      2.00000
      2      -4.1951      2.00000
      3      -4.1951      2.00000
      4      -4.1951      2.00000
      5       0.1752      2.00000
      6       0.1752      2.00000
      7       0.1752      2.00000
      8       0.1752      2.00000
      9       1.9460      2.00000
     10       1.9460      2.00000
     11       1.9460      2.00000
     12       1.9460      2.00000
     13       4.3121      2.00000
     14       4.3121      2.00000
     15       4.3121      2.00000
     16       4.3121      2.00000
     17       8.0510      0.00000
     18       8.0510      0.00000
     19       8.0510      0.00000
     20       8.0510      0.00000
     21      10.3615      0.00000
     22      10.3615      0.00000
     23      10.3621      0.00000
     24      10.3639      0.00000

 k-point     7 :       0.2500    0.2500    0.2500
  band No.  band energies     occupation 
      1      -5.4139      2.00000
      2      -3.5354      2.00000
      3      -3.5354      2.00000
      4      -3.5354      2.00000
      5      -0.7087      2.00000
      6      -0.7087      2.00000
      7      -0.7087      2.00000
      8       1.7282      2.00000
      9       2.1525      2.00000
     10       2.1525      2.00000
     11       2.1525      2.00000
     12       3.4549      2.00000
     13       3.4549      2.00000
     14       3.4549      2.00000
     15       4.8692      2.00000
     16       4.8692      2.00000
     17       7.1556      0.00000
     18       7.1556      0.00000
     19       7.1556      0.00000
     20       7.5717      0.00000
     21       9.1033      0.00000
     22       9.1033      0.00000
     23      10.0451      0.00000
     24      10.0451      0.00000

 k-point     8 :       0.5000    0.2500    0.2500
  band No.  band energies     occupation 
      1      -4.6723      2.00000
      2      -4.6723      2.00000
      3      -3.3910      2.00000
      4      -3.3910      2.00000
      5      -1.0922      2.00000
      6      -1.0922      2.00000
      7       0.3871      2.00000
      8       0.3871      2.00000
      9       2.2274      2.00000
     10       2.2274      2.00000
     11       3.5041      2.00000
     12       3.5041      2.00000
     13       3.8058      2.00000
     14       3.8058      2.00000
     15       4.0607      2.00000
     16       4.0607      2.00000
     17       7.8414      0.00000
     18       7.8414      0.00000
     19       8.6367      0.00000
     20       8.6367      0.00000
     21       8.7601      0.00000
     22       8.7601      0.00000
     23       9.2054      0.00000
     24       9.2054      0.00000

 k-point     9 :       0.5000    0.5000    0.2500
  band No.  band energies     occupation 
      1      -4.0709      2.00000
      2      -4.0709      2.00000
      3      -4.0709      2.00000
      4      -4.0709      2.00000
      5      -0.6817      2.00000
      6      -0.6817      2.00000
      7      -0.6817      2.00000
      8      -0.6817      2.00000
      9       3.1938      2.00000
     10       3.1938      2.00000
     11       3.1938      2.00000
     12       3.1938      2.00000
     13       4.3718      2.00000
     14       4.3718      2.00000
     15       4.3718      2.00000
     16       4.3718      2.00000
     17       7.9253      0.00000
     18       7.9253      0.00000
     19       7.9253      0.00000
     20       7.9253      0.00000
     21       9.2210      0.00000
     22       9.2210      0.00000
     23       9.2210      0.00000
     24       9.2210      0.00000

 k-point    10 :       0.5000    0.5000    0.5000
  band No.  band energies     occupation 
      1      -3.9207      2.00000
      2      -3.9207      2.00000
      3      -3.9207      2.00000
      4      -3.9207      2.00000
      5      -1.2532      2.00000
      6      -1.2532      2.00000
      7      -1.2532      2.00000
      8      -1.2532      2.00000
      9       4.4359      2.00000
     10       4.4359      2.00000
     11       4.4359      2.00000
     12       4.4359      2.00000
     13       4.4359      2.00000
     14       4.4359      2.00000
     15       4.4359      2.00000
     16       4.4359      2.00000
     17       7.0790      0.00000
     18       7.0790      0.00000
     19       7.0790      0.00000
     20       7.0790      0.00000
     21       8.9629      0.00000
     22       8.9629      0.00000
     23       8.9629      0.00000
     24       8.9629      0.00000


--------------------------------------------------------------------------------------------------------


 soft charge-density along one line, spin component           1
         0         1         2         3         4         5         6         7         8         9
 total charge-density along one line
 
 pseudopotential strength for first ion, spin component:           1
 18.437  25.724  -0.000   0.000  -0.000  -0.000   0.000  -0.000
 25.724  35.894  -0.000   0.000  -0.000  -0.000   0.000  -0.000
 -0.000  -0.000   4.181   0.000  -0.000   7.791   0.000  -0.000
  0.000   0.000   0.000   4.181  -0.000   0.000   7.791  -0.000
 -0.000  -0.000  -0.000  -0.000   4.181  -0.000  -0.000   7.791
 -0.000  -0.000   7.791   0.000  -0.000  14.528   0.000  -0.000
  0.000   0.000   0.000   7.791  -0.000   0.000  14.528  -0.000
 -0.000  -0.000  -0.000  -0.000   7.791  -0.000  -0.000  14.528
 total augmentation occupancy for first ion, spin component:           1
  5.528  -2.063   0.000   0.000   0.000   0.000  -0.000  -0.000
 -2.063   0.885  -0.000   0.000   0.000  -0.000   0.000   0.000
  0.000  -0.000   2.906   0.000   0.000  -0.650  -0.000  -0.000
  0.000   0.000   0.000   2.906   0.000  -0.000  -0.650  -0.000
  0.000   0.000   0.000   0.000   2.906  -0.000  -0.000  -0.650
  0.000  -0.000  -0.650  -0.000  -0.000   0.154   0.000   0.000
 -0.000   0.000  -0.000  -0.650  -0.000   0.000   0.154   0.000
 -0.000   0.000  -0.000  -0.000  -0.650   0.000   0.000   0.154


------------------------ aborting loop because EDIFF is reached ----------------------------------------


    CHARGE:  cpu time      0.2088: real time      0.0346
    FORLOC:  cpu time      0.0301: real time      0.0048
    FORNL :  cpu time      0.5749: real time      0.0937
    STRESS:  cpu time      1.2791: real time      0.2807
    FORCOR:  cpu time      0.1998: real time      0.0330
    FORHAR:  cpu time      0.5257: real time      0.0978
    MIXING:  cpu time      0.1686: real time      0.0333
    OFIELD:  cpu time      0.0009: real time      0.0001

  FORCE on cell =-STRESS in cart. coord.  units (eV):
  Direction    XX          YY          ZZ          XY          YZ          ZX
  --------------------------------------------------------------------------------------
  Alpha Z    13.16745    13.16745    13.16745
  Ewald    -302.55337  -302.55337  -302.55337    -0.00000    -0.00000    -0.00000
  Hartree    20.25837    20.25837    20.25837    -0.00000    -0.00000    -0.00000
  E(xc)    -100.98466  -100.98466  -100.98466     0.00000    -0.00000    -0.00000
  Local    -118.09415  -118.09415  -118.09415     0.00000     0.00000    -0.00000
  n-local   309.69890   312.78860   306.80418    -1.98421    -1.67363    -0.74915
  augment   -46.56731   -46.56731   -46.56731    -0.00000     0.00000     0.00000
  Kinetic   218.36622   229.18490   227.56220    -2.65057    -3.54891    -1.29927
  Fock        0.00000     0.00000     0.00000     0.00000     0.00000     0.00000
  -------------------------------------------------------------------------------------
  Total       0.02799     0.02799     0.02799     0.00000     0.00000    -0.00000
  in kB       0.27407     0.27407     0.27407     0.00000     0.00000    -0.00000
  external pressure =        0.27 kB  Pullay stress =        0.00 kB


 VOLUME and BASIS-vectors are now :
 -----------------------------------------------------------------------------
  energy-cutoff  :      520.00
  volume of cell :      163.62
      direct lattice vectors                 reciprocal lattice vectors
     5.469457568  0.000000000  0.000000000     0.182833487 -0.000000000  0.000000000
     0.000000000  5.469457568  0.000000000     0.000000000  0.182833487  0.000000000
     0.000000000  0.000000000  5.469457568    -0.000000000 -0.000000000  0.182833487

  length of vectors
     5.469457568  5.469457568  5.469457568     0.182833487  0.182833487  0.182833487


 FORCES acting on ions
    electron-ion (+dipol)            ewald-force                    non-local-force                 convergence-correction
 -----------------------------------------------------------------------------------------------
   0.844E-14 -.242E-13 0.259E-13   0.355E-14 0.711E-14 0.000E+00   -.311E-18 -.286E-17 -.229E-16   0.265E-14 -.562E-14 0.166E-14
   0.779E-14 -.439E-13 -.833E-15   0.355E-14 0.711E-14 0.000E+00   -.119E-16 -.118E-17 -.810E-17   0.374E-14 0.223E-14 0.426E-14
   -.123E-13 -.461E-13 0.830E-13   0.355E-14 0.711E-14 0.000E+00   -.184E-16 -.327E-17 -.144E-16   -.190E-14 0.260E-14 0.155E-14
   -.585E-14 -.253E-13 0.420E-13   0.355E-14 0.711E-14 0.000E+00   -.141E-16 0.176E-16 -.109E-16   -.193E-14 -.587E-14 0.319E-14
   -.292E-13 0.414E-14 -.605E-13   -.334E-14 -.726E-14 -.404E-15   -.907E-18 0.141E-16 0.234E-16   0.277E-14 -.333E-14 0.785E-14
   -.909E-14 0.263E-13 -.677E-14   -.162E-15 -.723E-14 -.485E-15   0.602E-17 -.211E-16 0.163E-16   0.153E-15 -.337E-14 -.101E-13
   -.779E-14 -.235E-13 -.269E-13   -.436E-15 -.692E-14 0.407E-15   0.142E-16 0.212E-18 0.180E-16   -.332E-16 0.393E-14 0.739E-14
   -.260E-13 0.103E-13 -.364E-13   -.306E-14 -.690E-14 0.327E-15   0.212E-16 0.926E-17 0.933E-17   0.196E-14 0.507E-14 -.108E-13
 -----------------------------------------------------------------------------------------------
   -.740E-13 -.122E-12 0.194E-13   0.721E-14 0.104E-15 -.155E-15   -.407E-17 0.128E-16 0.108E-16   0.741E-14 -.437E-14 0.499E-14
 
 
 POSITION                                       TOTAL-FORCE (eV/Angst)
 -----------------------------------------------------------------------------------
      0.00000      0.00000      0.00000         0.000000      0.000000      0.000000
      0.00000      2.73473      2.73473         0.000000     -0.000000      0.000000
      2.73473      2.73473      0.00000         0.000000      0.000000      0.000000
      2.73473      0.00000      2.73473         0.000000      0.000000      0.000000
      4.10209      1.36736      4.10209         0.000000     -0.000000     -0.000000
      1.36736      1.36736      1.36736        -0.000000     -0.000000     -0.000000
      1.36736      4.10209      4.10209        -0.000000     -0.000000     -0.000000
      4.10209      4.10209      1.36736        -0.000000      0.000000     -0.000000
 -----------------------------------------------------------------------------------
    total drift:                               -0.000000     -0.000000      0.000000


--------------------------------------------------------------------------------------------------------



  FREE ENERGIE OF THE ION-ELECTRON SYSTEM (eV)
  ---------------------------------------------------
  free  energy   TOTEN  =       -43.38265089 eV

  energy  without entropy=      -43.38265089  energy(sigma->0) =      -43.38265089
 


--------------------------------------------------------------------------------------------------------


    POTLOK:  cpu time      0.2120: real time      0.0359


--------------------------------------------------------------------------------------------------------


 stress matrix after NEB project (eV)
      0.02799      0.00000     -0.00000
      0.00000      0.02799     -0.00000
     -0.00000      0.00000      0.02799
  FORCES: max atom, RMS     0.000000    0.000000
  FORCE total and by dimension    0.000000    0.000000
  Stress total and by dimension    0.048478    0.027989
 writing wavefunctions
     LOOP+:  cpu time     40.2846: real time      7.2154
    4ORBIT:  cpu time      0.0000: real time      0.0000

 total amount of memory used by VASP MPI-rank0    52225. kBytes
=======================================================================

   base      :      30000. kBytes
   nonlr-proj:       2263. kBytes
   fftplans  :       5401. kBytes
   grid      :      10217. kBytes
   one-center:         24. kBytes
   wavefun   :       4320. kBytes
 
  
  
 General timing and accounting informations for this job:
 ========================================================
  
                  Total CPU time used (sec):       60.645
                            User time (sec):       52.243
                          System time (sec):        8.401
                         Elapsed time (sec):       27.066
  
                   Maximum memory used (kb):     3169528.
                   Average memory used (kb):          N/A
  
                          Minor page faults:       617498
                          Major page faults:          326
                 Voluntary context switches:       338986
 
 PROFILE, used timers:     288
 =============================
 
 index                 routine                    time                            calls level
----------------------------------------------------------------------------------------------
    1    total_time                           27.065934                                1   1
    2      init_hip                              2.587506                              1   2
    3      crpa_reader                           0.000053                              1   2
    4      hip_init_hipblas                      7.002279                              1   2
    5      hip_init_rocsolver                    0.000628                              1   2
    6      inisym                                0.033848                              1   2
    7        posmap                                0.000154                            2   3
    8      hip_hipfft_makeplans                  0.087333                              3   2
    9        hip_hipfft_makeplan                   0.087319                            6   3
   10      brgrid                                0.000377                              1   2
   11      stufak                                0.000781                              1   2
   12      m_sumb_d                              0.012309                            418   2
   13      fft3d_mpi                             0.007630                              3   2
   14        fftbrc_mpi                            0.007118                            3   3
   15          fftbas_plan_mpi                       0.007114                          3   4
   16            dfftw_execute                         0.004007                        9   5
   17            map_forward                           0.002723                        6   5
   18              map_gather                            0.000462                      3   6
   19              m_alltoallv_z                         0.001965                      3   6
   20              map_scatter                           0.000263                      3   6
   21      rspher_all                            0.004442                              2   2
   22      wfinit                                0.075748                              1   2
   23        m_bcast_z                             0.019656                          240   3
   24        m_sumb_d                              0.000157                            1   3
   25      setdij_                               0.002982                              2   2
   26        m_sumb_d                              0.000832                            2   3
   27      vectorpot                             0.000015                              1   2
   28      proall                                0.272703                              1   2
   29        phaser                                0.022102                           10   3
   30        rpro_isp                              0.243574                           10   3
   31          fftwav_mpi                            0.234775                         60   4
   32            fftwav                                0.234608                       60   5
   33              fft3d                                 0.215700                     60   6
   34          rpromu_acc                            0.006768                         20   4
   35      orthch                                0.185506                              1   2
   36        overl                                 0.001085                           10   3
   37        redis_proj                            0.018337                           30   3
   38          m_alltoall_d                          0.014088                        180   4
   39        redis_pw                              0.003504                           20   3
   40          m_alltoall_d                          0.002827                        120   4
   41        orth1                                 0.001984                           10   3
   42        m_sumb_d                              0.004268                           10   3
   43        choleski                              0.034936                           10   3
   44        lincom                                0.112047                           10   3
   45      redis_pw_over_bands                   0.000000                              1   2
   46      fewald                                0.004157                              1   2
   47        rsp                                   0.002408                            1   3
   48        rcp                                   0.000058                            1   3
   49        m_sumb_d                              0.000198                            5   3
   50      elmin                                 5.443174                              1   2
   51        potlok                                0.240048                            7   3
   52          fft3d_mpi                             0.157026                         91   4
   53            fftbrc_mpi                            0.143280                       91   5
   54              fftbas_plan_mpi                       0.143182                     91   6
   55                dfftw_execute                         0.041046                  273   7
   56                map_forward                           0.041662                   98   7
   57                  map_gather                            0.005085                 56   8
   58                  m_alltoallv_z                         0.031868                 56   8
   59                  map_scatter                           0.004512                 56   8
   60                map_backward                          0.057114                   84   7
   61                  map_gather                            0.003570                 42   8
   62                  m_alltoallv_z                         0.029614                 42   8
   63                  map_scatter                           0.023782                 42   8
   64          ggaall_grid                           0.039060                          7   4
   65          m_sumb_d                              0.000376                         35   4
   66          pothar                                0.005129                          7   4
   67            m_sumb_d                              0.001077                        7   5
   68          m_bcast_d                             0.001766                          7   4
   69        potlok_metagga                        0.000012                            7   3
   70        vectorpot                             0.000052                            7   3
   71        setdij_                               0.005751                            7   3
   72          m_sumb_d                              0.000198                          7   4
   73        set_dd_magatom                        0.000053                            7   3
   74        set_dd_paw                            0.011845                            7   3
   75          set_rsgf_all                          0.000064                          7   4
   76          m_sumb_d                              0.000345                         49   4
   77        eddav                                 4.972363                           11   3
   78          phaser                                0.174891                        110   4
   79          redis_proj                            0.245622                       7216   4
   80            m_alltoall_d                          0.199165                     8316   5
   81          redis_pw                              0.218584                       5632   4
   82            m_alltoall_d                          0.175555                     6732   5
   83          newband                               0.217026                       1232   4
   84            w1_copy                               0.012859                     1320   5
   85            redis_pw                              0.020053                      660   5
   86              m_alltoall_d                          0.016181                    660   6
   87            redis_proj                            0.020989                      660   5
   88              m_alltoall_d                          0.017478                    660   6
   89            fftwav_mpi                            0.026678                      660   5
   90              fftwav                                0.025105                    660   6
   91                fft3d                                 0.019018                  660   7
   92            eccp                                  0.018274                      660   5
   93            truncate_high_frequency_w1            0.000101                      660   5
   94            setup_precond                         0.006188                      660   5
   95          m_sumb_d                              0.197587                       3487   4
   96          hamiltmu                              0.763098                       1122   4
   97            vhamil                                0.013740                     2244   5
   98            raccmu_                               0.338129                     1122   5
   99              overl_mu                              0.162453                   1122   6
  100              racc0mu_acc                           0.097675                   1122   6
  101            kinhamil                              0.082624                     2244   5
  102              fftext_mpi                            0.071101                   2244   6
  103                fft3d_mpi                             0.059717                 2244   7
  104                  fft3d                                 0.057767               2244   8
  105          overl                                 0.036535                       3828   4
  106          truncate_high_frequency_w1            0.000366                       2244   4
  107          w1_copy                               0.065856                       5412   4
  108          orth1                                 0.138319                       3366   4
  109          lapack                                0.497136                       1122   4
  110          m_bcast_z                             0.015707                       1122   4
  111          m_bcast_d                             0.011175                       2244   4
  112          apply_precond                         0.012002                       1584   4
  113          fftwav_mpi                            0.122296                       3168   4
  114            fftwav                                0.114818                     3168   5
  115              fft3d                                 0.085374                   3168   6
  116          w1_projall                            0.189365                        792   4
  117            rpromu_acc                            0.188361                      792   5
  118          ggemm                                 0.060042                       1452   4
  119          lincom                                0.025280                        110   4
  120        m_sumb_d                              0.000344                           35   3
  121        densta                                0.002967                           11   3
  122          m_sumb_d                              0.000639                        124   4
  123        set_charge                            0.166476                            6   3
  124          soft_charge                           0.025882                          6   4
  125            fftwav_mpi                            0.007703                      240   5
  126              fftwav                                0.007239                    240   6
  127                fft3d                                 0.005284                  240   7
  128            pw_charge                             0.001061                      240   5
  129            m_sumb_d                              0.006979                        6   5
  130            fft_gq                                0.007113                        6   5
  131              fft3d_mpi                             0.006596                      6   6
  132                fftbrc_mpi                            0.004938                    6   7
  133                  fftbas_plan_mpi                       0.004933                  6   8
  134                    dfftw_execute                         0.001889               18   9
  135                    map_backward                          0.002521               12   9
  136                      map_gather                            0.000360             12  10
  137                      m_alltoallv_z                         0.001581             12  10
  138                      map_scatter                           0.000542             12  10
  139          m_sumb_d                              0.002344                          6   4
  140          depsum                                0.006885                          6   4
  141            m_sumb_d                              0.002443                        6   5
  142          augmentation_charge                   0.026707                          6   4
  143            fft3d_mpi                             0.010972                        6   5
  144              fftbrc_mpi                            0.010287                      6   6
  145                fftbas_plan_mpi                       0.010279                    6   7
  146                  dfftw_execute                         0.002208                 18   8
  147                  map_backward                          0.007695                 12   8
  148                    map_gather                            0.000589                6   9
  149                    m_alltoallv_z                         0.003544                6   9
  150                    map_scatter                           0.003536                6   9
  151        brmix                                 0.010994                            6   3
  152          m_sumb_d                              0.000254                         36   4
  153          brpre                                 0.000319                          6   4
  154          setg0                                 0.005589                          7   4
  155          broyd                                 0.002177                          6   4
  156            m_sumb_d                              0.000431                       51   5
  157            brsav                                 0.000162                       46   5
  158            brget                                 0.000165                      123   5
  159      rotate_active_occupied_orbital        0.000004                              1   2
  160      force_and_stress                      0.581692                              1   2
  161        set_charge                            0.027306                            1   3
  162          soft_charge                           0.004205                          1   4
  163            fftwav_mpi                            0.001302                       40   5
  164              fftwav                                0.001221                     40   6
  165                fft3d                                 0.000905                   40   7
  166            pw_charge                             0.000165                       40   5
  167            m_sumb_d                              0.001302                        1   5
  168            fft_gq                                0.000865                        1   5
  169              fft3d_mpi                             0.000842                      1   6
  170                fftbrc_mpi                            0.000573                    1   7
  171                  fftbas_plan_mpi                       0.000572                  1   8
  172                    dfftw_execute                         0.000113                3   9
  173                    map_backward                          0.000381                2   9
  174                      map_gather                            0.000060              2  10
  175                      m_alltoallv_z                         0.000221              2  10
  176                      map_scatter                           0.000095              2  10
  177          m_sumb_d                              0.000329                          1   4
  178          depsum                                0.001064                          1   4
  179            m_sumb_d                              0.000521                        1   5
  180          augmentation_charge                   0.004436                          1   4
  181            fft3d_mpi                             0.001820                        1   5
  182              fftbrc_mpi                            0.001707                      1   6
  183                fftbas_plan_mpi                       0.001706                    1   7
  184                  dfftw_execute                         0.000369                  3   8
[...]
  208          m_sumb_d                              0.000042                          7   4
  209        strkin                                0.000801                            1   3
  210          m_sumb_d                              0.000128                          1   4
  211        strelo                                0.003685                            1   3
  212          m_sumb_d                              0.000113                          2   4
  213        strnlr                                0.265946                            1   3
  214          rspher_all                            0.035138                          9   4
  215          phaser                                0.143411                         90   4
  216          rpro_isp                              0.081413                         90   4
  217            fftwav_mpi                            0.019876                      540   5
  218              fftwav                                0.018615                    540   6
  219                fft3d                                 0.013348                  540   7
  220            rpromu_acc                            0.049046                      180   5
  221          m_sumb_d                              0.001362                          1   4
  222        fft3d_mpi                             0.019124                           11   3
  223          fftbrc_mpi                            0.017579                         11   4
  224            fftbas_plan_mpi                       0.017571                       11   5
  225              dfftw_execute                         0.004252                     33   6
  226              map_forward                           0.004593                     10   6
  227                map_gather                            0.000562                    5   7
  228                m_alltoallv_z                         0.003579                    5   7
  229                map_scatter                           0.000437                    5   7
  230              map_backward                          0.008285                     12   6
  231                map_gather                            0.000524                    6   7
  232                m_alltoallv_z                         0.004454                    6   7
  233                map_scatter                           0.003286                    6   7
  234        ggaall_grid                           0.005527                            1   3
  235        m_sumb_d                              0.000039                            5   3
  236        forhar                                0.004223                            2   3
  237          m_sumb_d                              0.000159                          2   4
  238        strehar                               0.002059                            1   3
  239          m_sumb_d                              0.000009                          1   4
  240        chggra                                0.095301                            1   3
  241          fft3d_mpi                             0.091122                          3   4
  242            fftbrc_mpi                            0.089669                        3   5
  243              fftbas_plan_mpi                       0.089664                      3   6
  244                map_forward                           0.015293                    4   7
  245                  map_gather                            0.000020                  2   8
  246                  m_alltoallv_z                         0.015216                  2   8
  247                  map_scatter                           0.000027                  2   8
  248                map_backward                          0.000045                    2   7
  249                  map_gather                            0.000006                  1   8
  250                  m_alltoallv_z                         0.000026                  1   8
  251                  map_scatter                           0.000005                  1   8
  252          m_sumb_d                              0.000009                          2   4
  253          pothar                                0.001723                          1   4
  254            m_sumb_d                              0.001388                        1   5
  255        brmix                                 0.003400                            1   3
  256          m_sumb_d                              0.000210                          6   4
  257          brpre                                 0.000064                          1   4
  258          setg0                                 0.000876                          1   4
  259          broyd                                 0.001191                          1   4
  260            m_sumb_d                              0.000409                       13   5
  261            brget                                 0.000055                       39   5
  262            brsav                                 0.000048                       11   5
  263        m_bcast_d                             0.000035                            2   3
  264      potlok                                0.031702                              1   2
  265        fft3d_mpi                             0.021344                           13   3
  266          fftbrc_mpi                            0.019376                         13   4
  267            fftbas_plan_mpi                       0.019366                       13   5
  268              dfftw_execute                         0.004759                     39   6
  269              map_forward                           0.005825                     14   6
  270                map_gather                            0.000686                    8   7
  271                m_alltoallv_z                         0.004512                    8   7
  272                map_scatter                           0.000605                    8   7
  273              map_backward                          0.008318                     12   6
  274                map_gather                            0.000479                    6   7
  275                m_alltoallv_z                         0.004181                    6   7
  276                map_scatter                           0.003645                    6   7
  277        ggaall_grid                           0.005518                            1   3
  278        m_sumb_d                              0.000030                            5   3
  279        pothar                                0.000438                            1   3
  280          m_sumb_d                              0.000005                          1   4
  281        m_bcast_d                             0.000259                            1   3
  282      potlok_metagga                        0.000001                              1   2
  283      set_dd_magatom                        0.000005                              1   2
  284      set_dd_paw                            0.001385                              1   2
  285        set_rsgf_all                          0.000090                            1   3
  286        m_sumb_d                              0.000060                            7   3
  287      densta                                0.000225                              1   2
  288        m_sumb_d                              0.000061                            9   3
 
 Flat profile
 ============
 
             routine name                   CPU           calls
 ---------------------------------------------------------------
 total_time                             10.729449           1
 hip_init_hipblas                        7.002279           1
 init_hip                                2.587506           1
 eddav                                   1.981475          11
 lapack                                  0.497136        1122
 m_alltoall_d                            0.425294       16668
 fft3d                                   0.401605        7132
 phaser                                  0.388083         240
 hamiltmu                                0.328605        1122
 rpromu_acc                              0.260054        1052
 m_sumb_d                                0.240479        4379
 overl_mu                                0.162453        1122
 orth1                                   0.140303        3376
 lincom                                  0.137327         120
 set_charge                              0.121931           7
 newband                                 0.111884        1232
 m_alltoallv_z                           0.101290         150
 racc0mu_acc                             0.097675        1122
 hip_hipfft_makeplan                     0.087319           6
 fftbas_plan_mpi                         0.080005         135
 w1_copy                                 0.078715        6732
 raccmu_                                 0.078001        1122
 fftwav                                  0.063534        4888
 ggemm                                   0.060042        1452
 dfftw_execute                           0.058643         396
 wfinit                                  0.055935           1
 redis_proj                              0.054216        7906
 rspher_all                              0.051454          14
 ggaall_grid                             0.050105           9
 redis_pw                                0.047578        6312
 force_and_stress                        0.045043           1
 map_scatter                             0.041394         150
 potlok                                  0.040804           8
 overl                                   0.037620        3838
 m_bcast_z                               0.035363        1362
 choleski                                0.034936          10
 inisym                                  0.033694           1
 elmin                                   0.032269           1
 fft3d_mpi                               0.023898        2379
 setdij_                                 0.020829          35
 rpro_isp                                0.018809         130
 augmentation_charge                     0.018350           7
 eccp                                    0.018274         660
 set_dd_paw                              0.013874           9
 vhamil                                  0.013740        2244
 m_bcast_d                               0.013235        2254
 map_gather                              0.012498         150
 apply_precond                           0.012002        1584
 kinhamil                                0.011523        2244
 fftwav_mpi                              0.011427        4888
 fftext_mpi                              0.011384        2244
 orthch                                  0.009345           1
 proall                                  0.007027           1
 setg0                                   0.006465           8
 setup_precond                           0.006188         660
 depsum                                  0.004985           7
 pothar                                  0.004820           9
 strnlr                                  0.004622           1
 forhar                                  0.004064           2
 forloc                                  0.003828           1
 brmix                                   0.003714           7
 soft_charge                             0.003597           7
 strelo                                  0.003572           1
 densta                                  0.002492          12
 chggra                                  0.002447           1
 rsp                                     0.002408           1
 broyd                                   0.002097           7
 strehar                                 0.002050           1
 fornlr                                  0.001562           1
 fewald                                  0.001493           1
 pw_charge                               0.001225         280
 w1_projall                              0.001004         792
 stufak                                  0.000781           1
 strkin                                  0.000673           1
 hip_init_rocsolver                      0.000628           1
 fft_gq                                  0.000540           7
 truncate_high_frequency_w1              0.000467        2904
 brpre                                   0.000383           7
 brgrid                                  0.000377           1
 map_forward                             0.000296         132
 map_backward                            0.000261         138
 brget                                   0.000220         162
 brsav                                   0.000211          57
 set_rsgf_all                            0.000154           9
 posmap                                  0.000154           2
 fftbrc_mpi                              0.000142         135
 vectorpot                               0.000067           8
 set_dd_magatom                          0.000062           9
 rcp                                     0.000058           1
 crpa_reader                             0.000053           1
 fordep                                  0.000028           1
 hip_hipfft_makeplans                    0.000014           3
 potlok_metagga                          0.000013           8
 rotate_active_occupied_orbital          0.000004           1
 redis_pw_over_bands                     0.000000           1
 ---------------------------------------------------------------
  summed up times    27.0659339427948     
 
 Accumulative profile
 ====================
 
             routine name                   CPU           calls
 ---------------------------------------------------------------
 total_time                             27.065934           1
 hip_init_hipblas                        7.002279           1
 elmin                                   5.443174           1
 eddav                                   4.972363          11
 init_hip                                2.587506           1
 hamiltmu                                0.763098        1122
 force_and_stress                        0.581692           1
 lapack                                  0.497136        1122
 m_alltoall_d                            0.425294       16668
 fftwav_mpi                              0.418799        4888
 fftwav                                  0.407372        4888
 fft3d                                   0.401605        7132
 phaser                                  0.388083         240
 fft3d_mpi                               0.376194        2379
 rpro_isp                                0.351322         130
 raccmu_                                 0.338129        1122
 fftbrc_mpi                              0.294528         135
 fftbas_plan_mpi                         0.294386         135
 redis_proj                              0.284948        7906
 proall                                  0.272703           1
 potlok                                  0.271750           8
 strnlr                                  0.265946           1
 rpromu_acc                              0.260054        1052
 redis_pw                                0.242141        6312
 m_sumb_d                                0.240479        4379
 newband                                 0.217026        1232
 set_charge                              0.193782           7
 w1_projall                              0.189365         792
 orthch                                  0.185506           1
 overl_mu                                0.162453        1122
 orth1                                   0.140303        3376
 lincom                                  0.137327         120
 m_alltoallv_z                           0.101290         150
 racc0mu_acc                             0.097675        1122
 chggra                                  0.095301           1
 fornlr                                  0.090239           1
 hip_hipfft_makeplans                    0.087333           3
 hip_hipfft_makeplan                     0.087319           6
 map_backward                            0.085643         138
 kinhamil                                0.082624        2244
 w1_copy                                 0.078715        6732
 wfinit                                  0.075748           1
 fftext_mpi                              0.071101        2244
 map_forward                             0.070095         132
 ggemm                                   0.060042        1452
 dfftw_execute                           0.058643         396
 rspher_all                              0.051454          14
 ggaall_grid                             0.050105           9
 map_scatter                             0.041394         150
 overl                                   0.037620        3838
 m_bcast_z                               0.035363        1362
 choleski                                0.034936          10
 inisym                                  0.033848           1
 augmentation_charge                     0.031143           7
 soft_charge                             0.030087           7
 setdij_                                 0.022430          35
 eccp                                    0.018274         660
 set_dd_paw                              0.014475           9
 brmix                                   0.014394           7
 vhamil                                  0.013740        2244
 m_bcast_d                               0.013235        2254
 map_gather                              0.012498         150
 apply_precond                           0.012002        1584
 fft_gq                                  0.007977           7
 depsum                                  0.007949           7
 pothar                                  0.007290           9
 setg0                                   0.006465           8
 setup_precond                           0.006188         660
 forhar                                  0.004223           2
 fewald                                  0.004157           1
 forloc                                  0.003989           1
 strelo                                  0.003685           1
 broyd                                   0.003368           7
 fordep                                  0.003289           1
 densta                                  0.003192          12
 rsp                                     0.002408           1
 strehar                                 0.002059           1
 pw_charge                               0.001225         280
 strkin                                  0.000801           1
 stufak                                  0.000781           1
 hip_init_rocsolver                      0.000628           1
 truncate_high_frequency_w1              0.000467        2904
 brpre                                   0.000383           7
 brgrid                                  0.000377           1
 brget                                   0.000220         162
 brsav                                   0.000211          57
 set_rsgf_all                            0.000154           9
 posmap                                  0.000154           2
 vectorpot                               0.000067           8
 set_dd_magatom                          0.000062           9
 rcp                                     0.000058           1
 crpa_reader                             0.000053           1
 potlok_metagga                          0.000013           8
 rotate_active_occupied_orbital          0.000004           1
 redis_pw_over_bands                     0.000000           1
 ---------------------------------------------------------------
 
Profiling took   0.037501  0.013069  0.002603  0.002567 seconds
Profiling took   0.024973 seconds
