<?xml version="1.0" encoding="ISO-8859-1"?>
<modeling>
 <generator>
  <i name="program" type="string">vasp </i>
  <i name="version" type="string">6.4.2  </i>
  <i name="subversion" type="string">20Jul23 (build Nov 02 2024 22:18:10) complex                          parallel </i>
  <i name="platform" type="string">LinuxIFC </i>
  <i name="date" type="string">2026 05 03 </i>
  <i name="time" type="string">20:26:04 </i>
 </generator>
 <incar>
  <i type="string" name="SYSTEM">Si_scf</i>
  <i type="string" name="PREC">Accurate</i>
  <i type="string" name="ALGO">Normal</i>
  <i type="int" name="ICHARG">     2</i>
  <i name="EDIFF">      0.00000100</i>
  <i name="ENCUT">    520.00000000</i>
  <i type="string" name="LREAL">Auto</i>
  <i type="int" name="ISMEAR">     0</i>
  <i name="SIGMA">      0.05000000</i>
  <i type="logical" name="LWAVE"> T  </i>
  <i type="logical" name="LCHARG"> T  </i>
 </incar>
 <primitive_cell>
  <structure name="primitive_cell" >
   <crystal>
    <varray name="basis" >
     <v>       2.73472878      -2.73472878       0.00000000 </v>
     <v>       2.73472878       0.00000000       2.73472878 </v>
     <v>      -0.00000000      -2.73472878       2.73472878 </v>
    </varray>
    <i name="volume">     40.90465942 </i>
    <varray name="rec_basis" >
     <v>       0.18283349      -0.18283349      -0.18283349 </v>
     <v>       0.18283349       0.18283349       0.18283349 </v>
     <v>      -0.18283349      -0.18283349       0.18283349 </v>
    </varray>
   </crystal>
   <varray name="positions" >
    <v>       0.00000000       0.00000000       0.00000000 </v>
    <v>       0.75000000       0.75000000       0.75000000 </v>
   </varray>
  </structure>
  <varray name="primitive_index" >
   <v type="int" >        1 </v>
   <v type="int" >        5 </v>
  </varray>
 </primitive_cell>
 <kpoints>
  <generation param="Gamma">
   <v type="int" name="divisions">       4        4        4 </v>
   <v name="usershift">      0.00000000       0.00000000       0.00000000 </v>
   <v name="genvec1">      0.25000000      -0.00000000       0.00000000 </v>
   <v name="genvec2">      0.00000000       0.25000000       0.00000000 </v>
   <v name="genvec3">      0.00000000       0.00000000       0.25000000 </v>
   <v name="shift">      0.00000000       0.00000000       0.00000000 </v>
  </generation>
  <varray name="kpointlist" >
   <v>       0.00000000       0.00000000       0.00000000 </v>
   <v>       0.25000000      -0.00000000       0.00000000 </v>
   <v>       0.50000000      -0.00000000       0.00000000 </v>
   <v>       0.25000000       0.25000000       0.00000000 </v>
   <v>       0.50000000       0.25000000       0.00000000 </v>
   <v>       0.50000000       0.50000000       0.00000000 </v>
   <v>       0.25000000       0.25000000       0.25000000 </v>
   <v>       0.50000000       0.25000000       0.25000000 </v>
   <v>       0.50000000       0.50000000       0.25000000 </v>
   <v>       0.50000000       0.50000000       0.50000000 </v>
  </varray>
  <varray name="weights" >
   <v>       0.01562500 </v>
   <v>       0.09375000 </v>
   <v>       0.04687500 </v>
   <v>       0.18750000 </v>
   <v>       0.18750000 </v>
   <v>       0.04687500 </v>
   <v>       0.12500000 </v>
   <v>       0.18750000 </v>
   <v>       0.09375000 </v>
   <v>       0.01562500 </v>
  </varray>
 </kpoints>
 <parameters>
  <separator name="general" >
   <i type="string" name="SYSTEM">Si_scf</i>
   <i type="logical" name="LCOMPAT"> F  </i>
  </separator>
  <separator name="electronic" >
   <i type="string" name="PREC">accura</i>
   <i name="ENMAX">    520.00000000</i>
   <i name="ENAUG">    322.06900000</i>
   <i name="EDIFF">      0.00000100</i>
   <i type="int" name="IALGO">    38</i>
   <i type="int" name="IWAVPR">    10</i>
   <i type="int" name="NBANDS">    24</i>
   <i type="int" name="NBANDSLOW">    -1</i>
   <i type="int" name="NBANDSHIGH">    -1</i>
   <i name="NELECT">     32.00000000</i>
   <i type="int" name="TURBO">     0</i>
   <i type="int" name="IRESTART">     0</i>
   <i type="int" name="NREBOOT">     0</i>
   <i type="int" name="NMIN">     0</i>
   <i name="EREF">      0.00000000</i>
   <separator name="electronic smearing" >
    <i type="int" name="ISMEAR">     0</i>
    <i name="SIGMA">      0.05000000</i>
    <i name="KSPACING">      0.50000000</i>
    <i type="logical" name="KGAMMA"> T  </i>
    <i type="logical" name="KBLOWUP"> T  </i>
   </separator>
   <separator name="electronic projectors" >
    <i type="logical" name="LREAL"> T  </i>
    <v name="ROPT">     -0.00025000</v>
    <i type="int" name="LMAXPAW">  -100</i>
    <i type="int" name="LMAXMIX">     2</i>
    <i type="logical" name="NLSPLINE"> F  </i>
   </separator>
   <separator name="electronic startup" >
    <i type="int" name="ISTART">     0</i>
    <i type="int" name="ICHARG">     2</i>
    <i type="int" name="INIWAV">     1</i>
   </separator>
   <separator name="electronic spin" >
    <i type="int" name="ISPIN">     1</i>
    <i type="logical" name="LNONCOLLINEAR"> F  </i>
    <v name="MAGMOM">      1.00000000      1.00000000      1.00000000      1.00000000      1.00000000      1.00000000      1.00000000      1.00000000</v>
    <i name="NUPDOWN">     -1.00000000</i>
    <i type="logical" name="LSORBIT"> F  </i>
    <v name="SAXIS">      0.00000000      0.00000000      1.00000000</v>
    <i type="logical" name="LSPIRAL"> F  </i>
    <v name="QSPIRAL">      0.00000000      0.00000000      0.00000000</v>
    <i type="logical" name="LZEROZ"> F  </i>
   </separator>
   <separator name="electronic exchange-correlation" >
    <i type="logical" name="LASPH"> F  </i>
    <i type="logical" name="LMETAGGA"> F  </i>
   </separator>
   <separator name="electronic convergence" >
    <i type="int" name="NELM">    60</i>
    <i type="int" name="NELMDL">    -5</i>
    <i type="int" name="NELMIN">     2</i>
    <i name="ENINI">    520.00000000</i>
    <separator name="electronic convergence detail" >
     <i type="logical" name="LDIAG"> T  </i>
     <i type="logical" name="LSUBROT"> F  </i>
     <i name="WEIMIN">      0.00000000</i>
     <i name="EBREAK">      0.00000001</i>
     <i name="DEPER">      0.30000000</i>
     <i type="int" name="NRMM">     4</i>
     <i name="TIME">      0.40000000</i>
    </separator>
   </separator>
   <separator name="electronic mixer" >
    <i name="AMIX">      0.40000000</i>
    <i name="BMIX">      1.00000000</i>
    <i name="AMIN">      0.10000000</i>
    <i name="AMIX_MAG">      1.60000000</i>
    <i name="BMIX_MAG">      1.00000000</i>
    <separator name="electronic mixer details" >
     <i type="int" name="IMIX">     4</i>
     <i type="logical" name="MIXFIRST"> F  </i>
     <i type="int" name="MAXMIX">   -45</i>
     <i name="WC">    100.00000000</i>
     <i type="int" name="INIMIX">     1</i>
     <i type="int" name="MIXPRE">     1</i>
     <i type="int" name="MREMOVE">     5</i>
    </separator>
   </separator>
   <separator name="electronic dipolcorrection" >
    <i type="logical" name="LDIPOL"> F  </i>
    <i type="logical" name="LMONO"> F  </i>
    <i type="int" name="IDIPOL">     0</i>
    <i name="EPSILON">      1.00000000</i>
    <v name="DIPOL">   -100.00000000   -100.00000000   -100.00000000</v>
    <i name="EFIELD">      0.00000000</i>
   </separator>
  </separator>
  <separator name="grids" >
   <i type="int" name="NGX">    42</i>
   <i type="int" name="NGY">    42</i>
   <i type="int" name="NGZ">    42</i>
   <i type="int" name="NGXF">    84</i>
   <i type="int" name="NGYF">    84</i>
   <i type="int" name="NGZF">    84</i>
   <i type="logical" name="ADDGRID"> F  </i>
  </separator>
  <separator name="ionic" >
   <i type="int" name="NSW">     0</i>
   <i type="int" name="IBRION">    -1</i>
   <i type="int" name="MDALGO">     0</i>
   <i type="int" name="ISIF">     2</i>
   <i name="PSTRESS">      0.00000000</i>
   <i name="EDIFFG">      0.00001000</i>
   <i type="int" name="NFREE">     0</i>
   <i name="POTIM">      0.50000000</i>
   <i name="SMASS">     -3.00000000</i>
   <i name="SCALEE">      1.00000000</i>
  </separator>
  <separator name="ionic md" >
   <i name="TEBEG">      0.00010000</i>
   <i name="TEEND">      0.00010000</i>
   <i type="int" name="NBLOCK">     1</i>
   <i type="int" name="KBLOCK">     1</i>
   <i type="int" name="NPACO">   256</i>
   <i name="APACO">     10.00000000</i>
  </separator>
  <separator name="symmetry" >
   <i type="int" name="ISYM">     2</i>
   <i name="SYMPREC">      0.00001000</i>
  </separator>
  <separator name="dos" >
   <i type="int" name="LORBIT">     0</i>
   <v name="RWIGS">     -1.00000000</v>
   <i type="int" name="NEDOS">   301</i>
   <i name="EMIN">     10.00000000</i>
   <i name="EMAX">    -10.00000000</i>
   <i name="EFERMI">      0.00000000</i>
  </separator>
  <separator name="writing" >
   <i type="int" name="NWRITE">     2</i>
   <i type="logical" name="LWAVE"> T  </i>
   <i type="logical" name="LDOWNSAMPLE"> F  </i>
   <i type="logical" name="LCHARG"> T  </i>
   <i type="logical" name="LPARD"> F  </i>
   <i type="logical" name="LVTOT"> F  </i>
   <i type="logical" name="LVHAR"> F  </i>
   <i type="logical" name="LELF"> F  </i>
   <i type="logical" name="LOPTICS"> F  </i>
   <v name="STM">      0.00000000      0.00000000      0.00000000      0.00000000      0.00000000      0.00000000      0.00000000</v>
  </separator>
  <separator name="performance" >
   <i type="int" name="NPAR">     4</i>
   <i type="int" name="NSIM">     4</i>
   <i type="int" name="NBLK">    -1</i>
   <i type="logical" name="LPLANE"> T  </i>
   <i type="logical" name="LSCALAPACK"> T  </i>
   <i type="logical" name="LSCAAWARE"> F  </i>
   <i type="logical" name="LSCALU"> F  </i>
   <i type="logical" name="LASYNC"> F  </i>
   <i type="logical" name="LORBITALREAL"> F  </i>
  </separator>
  <separator name="miscellaneous" >
   <i type="int" name="IDIOT">     3</i>
   <i type="int" name="PHON_NSTRUCT">    -1</i>
   <i type="logical" name="LMUSIC"> F  </i>
   <v name="POMASS">     28.08500000</v>
   <v name="DARWINR">      0.00000000</v>
   <v name="DARWINV">      1.00000000</v>
   <i type="logical" name="LCORR"> T  </i>
  </separator>
  <i type="logical" name="GGA_COMPAT"> T  </i>
  <i type="logical" name="LBERRY"> F  </i>
  <i type="int" name="ICORELEVEL">     0</i>
  <i type="logical" name="LDAU"> F  </i>
  <i type="int" name="I_CONSTRAINED_M">     0</i>
  <separator name="electronic exchange-correlation" >
   <i type="string" name="GGA">--</i>
   <i type="int" name="VOSKOWN">     0</i>
   <i type="logical" name="LHFCALC"> F  </i>
   <i type="string" name="PRECFOCK"></i>
   <i type="logical" name="LSYMGRAD"> F  </i>
   <i type="logical" name="LHFONE"> F  </i>
   <i type="logical" name="LRHFCALC"> F  </i>
   <i type="logical" name="LTHOMAS"> F  </i>
   <i type="logical" name="LMODELHF"> F  </i>
   <i type="logical" name="LFOCKACE"> F  </i>
   <i name="ENCUT4O">     -1.00000000</i>
   <i type="int" name="EXXOEP">     0</i>
   <i type="int" name="FOURORBIT">     0</i>
   <i name="AEXX">      0.00000000</i>
   <i name="HFALPHA">      0.00000000</i>
   <i name="MCALPHA">      0.00000000</i>
   <i name="ALDAX">      1.00000000</i>
   <i name="AGGAX">      1.00000000</i>
   <i name="ALDAC">      1.00000000</i>
   <i name="AGGAC">      1.00000000</i>
   <i type="int" name="NKREDX">     1</i>
   <i type="int" name="NKREDY">     1</i>
   <i type="int" name="NKREDZ">     1</i>
   <i type="logical" name="SHIFTRED"> F  </i>
   <i type="logical" name="ODDONLY"> F  </i>
   <i type="logical" name="EVENONLY"> F  </i>
   <i type="int" name="LMAXFOCK">     0</i>
   <i type="int" name="NMAXFOCKAE">     0</i>
   <i type="logical" name="LFOCKAEDFT"> F  </i>
   <i name="HFSCREEN">      0.00000000</i>
   <i name="HFSCREENC">      0.00000000</i>
   <i type="int" name="NBANDSGWLOW">     0</i>
  </separator>
  <separator name="vdW DFT" >
   <i type="logical" name="LUSE_VDW"> F  </i>
   <i type="int" name="IVDW_NL">     1</i>
   <i type="logical" name="LSPIN_VDW"> F  </i>
   <i name="Zab_VDW">     -0.84910000</i>
   <i name="PARAM1">      0.12340000</i>
   <i name="PARAM2">      1.00000000</i>
   <i name="PARAM3">      0.00000000</i>
  </separator>
  <separator name="model GW" >
   <i type="int" name="MODEL_GW">     0</i>
   <i name="MODEL_EPS0">     12.27139783</i>
   <i name="MODEL_ALPHA">      1.00000000</i>
  </separator>
  <separator name="linear response parameters" >
   <i type="logical" name="LEPSILON"> F  </i>
   <i type="logical" name="LRPA"> F  </i>
   <i type="logical" name="LNABLA"> F  </i>
   <i type="logical" name="LVEL"> F  </i>
   <i name="CSHIFT">      0.10000000</i>
   <i name="OMEGAMAX">     -1.00000000</i>
   <i name="DEG_THRESHOLD">      0.00200000</i>
   <i name="RTIME">     -0.10000000</i>
   <i name="WPLASMAI">      0.00000000</i>
   <v name="DFIELD">      0.00000000      0.00000000      0.00000000</v>
   <v name="WPLASMA">      0.00000000      0.00000000      0.00000000      0.00000000      0.00000000      0.00000000      0.00000000      0.00000000      0.00000000</v>
  </separator>
  <separator name="orbital magnetization" >
   <i type="logical" name="NUCIND"> F  </i>
   <v name="MAGPOS">      0.00000000      0.00000000      0.00000000</v>
   <i type="logical" name="LNICSALL"> T  </i>
   <i type="logical" name="ORBITALMAG"> F  </i>
   <i type="logical" name="LMAGBLOCH"> F  </i>
   <i type="logical" name="LCHIMAG"> F  </i>
   <i type="logical" name="LGAUGE"> T  </i>
   <i type="int" name="MAGATOM">     0</i>
   <v name="MAGDIPOL">      0.00000000      0.00000000      0.00000000</v>
   <v name="AVECCONST">      0.00000000      0.00000000      0.00000000</v>
  </separator>
  <separator name="response functions" >
   <i type="logical" name="LALL_IN_ONE"> F  </i>
   <i type="int" name="IALL_IN_ONE">    -1</i>
   <i type="int" name="NBANDS_WAVE">    -1</i>
   <i type="logical" name="LFINITE_TEMPERATURE"> F  </i>
   <i type="logical" name="LADDER"> F  </i>
   <i type="logical" name="LRPAFORCE"> F  </i>
   <i type="logical" name="LFXC"> F  </i>
   <i type="logical" name="LHARTREE"> T  </i>
   <i type="int" name="IBSE">     0</i>
   <v type="int" name="KPOINT">    -1     0     0     0</v>
   <i type="logical" name="LTCTC"> F  </i>
   <i type="logical" name="LTCTE"> F  </i>
   <i type="logical" name="LTETE"> F  </i>
   <i type="logical" name="LTRIPLET"> F  </i>
   <i type="logical" name="LFXCEPS"> F  </i>
   <i type="logical" name="LFXHEG"> F  </i>
   <i type="int" name="NATURALO">     2</i>
   <i type="logical" name="LHOLEGF"> F  </i>
   <i type="logical" name="L2ORDER"> F  </i>
   <i type="logical" name="LDMP1"> F  </i>
   <i type="logical" name="LMP2LT"> F  </i>
   <i type="logical" name="LSMP2LT"> F  </i>
   <i type="logical" name="LGWLF"> F  </i>
   <i name="ENCUTGW">     -1.60000002</i>
   <i name="ENCUTGWSOFT">     -1.60000002</i>
   <i name="ENCUTLF">     -1.00000000</i>
   <i type="logical" name="LESF_SPLINES"> F  </i>
   <i type="int" name="LMAXMP2">    -1</i>
   <i name="SCISSOR">      0.00000000</i>
   <i type="int" name="NOMEGA">     0</i>
   <i type="int" name="NOMEGAR">     0</i>
   <i type="int" name="NBANDSGW">    -1</i>
   <i type="int" name="NBANDSO">    -1</i>
   <i type="int" name="NBANDSV">    -1</i>
   <i type="int" name="NELMGW">     1</i>
   <i type="int" name="NELMHF">     1</i>
   <i type="int" name="DIM">     3</i>
   <i type="int" name="IESPILON">     4</i>
   <i type="int" name="ANTIRES">     0</i>
   <i name="OMEGAMAX">    -30.00000000</i>
   <i name="OMEGAMIN">    -30.00000000</i>
   <i name="OMEGATL">   -200.00000000</i>
   <i type="int" name="OMEGAGRID">     0</i>
   <i name="CSHIFT">     -0.10000000</i>
   <i type="logical" name="LSELFENERGY"> F  </i>
   <i type="logical" name="LSPECTRAL"> F  </i>
   <i type="logical" name="LSPECTRALGW"> F  </i>
   <i type="logical" name="LSINGLES"> F  </i>
   <i type="logical" name="LFERMIGW"> F  </i>
   <i type="logical" name="ODDONLYGW"> F  </i>
   <i type="logical" name="EVENONLYGW"> F  </i>
   <i type="int" name="NKREDLFX">     1</i>
   <i type="int" name="NKREDLFY">     1</i>
   <i type="int" name="NKREDLFZ">     1</i>
   <i type="int" name="MAXMEM">  2800</i>
   <i type="int" name="TELESCOPE">     0</i>
   <i type="int" name="NTAUPAR">    -1</i>
   <i type="int" name="NOMEGAPAR">    -1</i>
   <i name="DAMP_NEWTON">      0.80000001</i>
   <i name="LAMBDA">      1.00000000</i>
  </separator>
  <separator name="External order field" >
   <i name="OFIELD_KAPPA">      0.00000000</i>
   <v name="OFIELD_K">      0.00000000      0.00000000      0.00000000</v>
   <i name="OFIELD_Q6_NEAR">      0.00000000</i>
   <i name="OFIELD_Q6_FAR">      0.00000000</i>
   <i name="OFIELD_A">      0.00000000</i>
  </separator>
  <separator name="optional k-points parameters" >
   <i type="int" name="KPOINTS_OPT_MODE">     1</i>
   <i type="logical" name="LKPOINTS_OPT"> F  </i>
  </separator>
  <separator name="solvation model" >
   <i type="logical" name="LSOL"> F  </i>
  </separator>
 </parameters>
 <atominfo>
  <atoms>       8 </atoms>
  <types>       1 </types>
  <array name="atoms" >
   <dimension dim="1">ion</dimension>
   <field type="string">element</field>
   <field type="int">atomtype</field>
   <set>
    <rc><c>Si</c><c>   1</c></rc>
    <rc><c>Si</c><c>   1</c></rc>
    <rc><c>Si</c><c>   1</c></rc>
    <rc><c>Si</c><c>   1</c></rc>
    <rc><c>Si</c><c>   1</c></rc>
    <rc><c>Si</c><c>   1</c></rc>
    <rc><c>Si</c><c>   1</c></rc>
    <rc><c>Si</c><c>   1</c></rc>
   </set>
  </array>
  <array name="atomtypes" >
   <dimension dim="1">type</dimension>
   <field type="int">atomspertype</field>
   <field type="string">element</field>
   <field>mass</field>
   <field>valence</field>
   <field type="string">pseudopotential</field>
   <set>
    <rc><c>   8</c><c>Si</c><c>     28.08500000</c><c>      4.00000000</c><c>  PAW_PBE Si 05Jan2001                  </c></rc>
   </set>
  </array>
 </atominfo>
 <structure name="initialpos" >
  <crystal>
   <varray name="basis" >
    <v>       5.46945757       0.00000000       0.00000000 </v>
    <v>       0.00000000       5.46945757       0.00000000 </v>
    <v>       0.00000000       0.00000000       5.46945757 </v>
   </varray>
   <i name="volume">    163.61863769 </i>
   <varray name="rec_basis" >
    <v>       0.18283349      -0.00000000       0.00000000 </v>
    <v>       0.00000000       0.18283349       0.00000000 </v>
    <v>      -0.00000000      -0.00000000       0.18283349 </v>
   </varray>
  </crystal>
  <varray name="positions" >
   <v>       0.00000000       0.00000000       0.00000000 </v>
   <v>       0.00000000       0.50000000       0.50000000 </v>
   <v>       0.50000000       0.50000000       0.00000000 </v>
   <v>       0.50000000       0.00000000       0.50000000 </v>
   <v>       0.75000000       0.25000000       0.75000000 </v>
   <v>       0.25000000       0.25000000       0.25000000 </v>
   <v>       0.25000000       0.75000000       0.75000000 </v>
   <v>       0.75000000       0.75000000       0.25000000 </v>
  </varray>
 </structure>
 <calculation>
  <scstep>
   <time name="dav">    3.18    0.54</time>
   <time name="total">    3.44    0.59</time>
   <energy>
    <i name="alphaZ">     13.16745086 </i>
    <i name="ewald">   -907.65855257 </i>
    <i name="hartreedc">    -45.31793382 </i>
    <i name="XCdc">    -74.74693281 </i>
    <i name="pawpsdc">    704.99039692 </i>
    <i name="pawaedc">   -564.24414232 </i>
    <i name="eentropy">     -0.00534779 </i>
    <i name="bandstr">    122.95752989 </i>
    <i name="atom">    824.53081094 </i>
    <i name="e_fr_energy">     73.67327929 </i>
    <i name="e_wo_entrp">     73.67862708 </i>
    <i name="e_0_energy">     73.67595318 </i>
   </energy>
  </scstep>
  <scstep>
   <time name="dav">    3.13    0.48</time>
   <time name="total">    3.13    0.48</time>
   <energy>
    <i name="e_fr_energy">    -38.31568527 </i>
    <i name="e_wo_entrp">    -38.31568527 </i>
    <i name="e_0_energy">    -38.31568527 </i>
   </energy>
  </scstep>
  <scstep>
   <time name="dav">    3.07    0.47</time>
   <time name="total">    3.08    0.47</time>
   <energy>
    <i name="e_fr_energy">    -43.96134247 </i>
    <i name="e_wo_entrp">    -43.96134247 </i>
    <i name="e_0_energy">    -43.96134247 </i>
   </energy>
  </scstep>
  <scstep>
   <time name="dav">    2.92    0.45</time>
   <time name="total">    2.92    0.45</time>
   <energy>
    <i name="e_fr_energy">    -44.05587070 </i>
    <i name="e_wo_entrp">    -44.05587070 </i>
    <i name="e_0_energy">    -44.05587070 </i>
   </energy>
  </scstep>
  <scstep>
   <time name="dav">    3.00    0.46</time>
   <time name="total">    3.20    0.49</time>
   <energy>
    <i name="e_fr_energy">    -44.05827470 </i>
    <i name="e_wo_entrp">    -44.05827470 </i>
    <i name="e_0_energy">    -44.05827470 </i>
   </energy>
  </scstep>
  <scstep>
   <time name="dav">    2.78    0.42</time>
   <time name="total">    3.18    0.49</time>
   <energy>
    <i name="e_fr_energy">    -43.59242196 </i>
    <i name="e_wo_entrp">    -43.59242196 </i>
    <i name="e_0_energy">    -43.59242196 </i>
   </energy>
  </scstep>
  <scstep>
   <time name="dav">    2.74    0.42</time>
   <time name="total">    3.13    0.48</time>
   <energy>
    <i name="e_fr_energy">    -43.37703668 </i>
    <i name="e_wo_entrp">    -43.37703668 </i>
    <i name="e_0_energy">    -43.37703668 </i>
   </energy>
  </scstep>
  <scstep>
   <time name="dav">    2.81    0.43</time>
   <time name="total">    3.20    0.49</time>
   <energy>
    <i name="e_fr_energy">    -43.38161430 </i>
    <i name="e_wo_entrp">    -43.38161430 </i>
    <i name="e_0_energy">    -43.38161430 </i>
   </energy>
  </scstep>
  <scstep>
   <time name="dav">    2.91    0.44</time>
   <time name="total">    3.30    0.51</time>
   <energy>
    <i name="e_fr_energy">    -43.38242856 </i>
    <i name="e_wo_entrp">    -43.38242856 </i>
    <i name="e_0_energy">    -43.38242856 </i>
   </energy>
  </scstep>
  <scstep>
   <time name="dav">    2.83    0.43</time>
   <time name="total">    3.22    0.50</time>
   <energy>
    <i name="e_fr_energy">    -43.38265004 </i>
    <i name="e_wo_entrp">    -43.38265004 </i>
    <i name="e_0_energy">    -43.38265004 </i>
   </energy>
  </scstep>
  <scstep>
   <time name="dav">    2.90    0.44</time>
   <time name="total">    3.11    0.48</time>
   <energy>
    <i name="alphaZ">     13.16745086 </i>
    <i name="ewald">   -907.65855257 </i>
    <i name="hartreedc">    -60.76880724 </i>
    <i name="XCdc">    -72.24145772 </i>
    <i name="pawpsdc">   3318.29225991 </i>
    <i name="pawaedc">  -3178.36818990 </i>
    <i name="eentropy">     -0.00000000 </i>
    <i name="bandstr">     19.66383482 </i>
    <i name="atom">    824.53081094 </i>
    <i name="e_fr_energy">    -43.38265089 </i>
    <i name="e_wo_entrp">    -43.38265089 </i>
    <i name="e_0_energy">    -43.38265089 </i>
   </energy>
  </scstep>
  <structure>
   <crystal>
    <varray name="basis" >
     <v>       5.46945757       0.00000000       0.00000000 </v>
     <v>       0.00000000       5.46945757       0.00000000 </v>
     <v>       0.00000000       0.00000000       5.46945757 </v>
    </varray>
    <i name="volume">    163.61863769 </i>
    <varray name="rec_basis" >
     <v>       0.18283349      -0.00000000       0.00000000 </v>
     <v>       0.00000000       0.18283349       0.00000000 </v>
     <v>      -0.00000000      -0.00000000       0.18283349 </v>
    </varray>
   </crystal>
   <varray name="positions" >
    <v>       0.00000000       0.00000000       0.00000000 </v>
    <v>       0.00000000       0.50000000       0.50000000 </v>
    <v>       0.50000000       0.50000000       0.00000000 </v>
    <v>       0.50000000       0.00000000       0.50000000 </v>
    <v>       0.75000000       0.25000000       0.75000000 </v>
    <v>       0.25000000       0.25000000       0.25000000 </v>
    <v>       0.25000000       0.75000000       0.75000000 </v>
    <v>       0.75000000       0.75000000       0.25000000 </v>
   </varray>
  </structure>
  <varray name="forces" >
   <v>       0.00000000       0.00000000       0.00000000 </v>
   <v>       0.00000000      -0.00000000       0.00000000 </v>
   <v>       0.00000000       0.00000000       0.00000000 </v>
   <v>       0.00000000       0.00000000       0.00000000 </v>
   <v>       0.00000000      -0.00000000      -0.00000000 </v>
   <v>      -0.00000000      -0.00000000      -0.00000000 </v>
   <v>      -0.00000000      -0.00000000      -0.00000000 </v>
   <v>      -0.00000000       0.00000000      -0.00000000 </v>
  </varray>
  <varray name="stress" >
   <v>       0.27406847       0.00000000      -0.00000000 </v>
   <v>       0.00000000       0.27406847      -0.00000000 </v>
   <v>      -0.00000000       0.00000000       0.27406847 </v>
  </varray>
  <energy>
   <i name="e_fr_energy">    -43.38265089 </i>
   <i name="e_wo_entrp">    -43.38265089 </i>
   <i name="e_0_energy">    -43.38265089 </i>
  </energy>
  <time name="totalsc">   40.28    7.22</time>
  <eigenvalues>
   <array>
    <dimension dim="1">band</dimension>
    <dimension dim="2">kpoint</dimension>
    <dimension dim="3">spin</dimension>
    <field>eigene</field>
    <field>occ</field>
    <set>
     <set comment="spin 1">
      <set comment="kpoint 1">
       <r>   -6.1986    1.0000 </r>
       <r>   -2.1313    1.0000 </r>
       <r>   -2.1313    1.0000 </r>
       <r>   -2.1313    1.0000 </r>
       <r>   -2.1313    1.0000 </r>
       <r>   -2.1313    1.0000 </r>
       <r>   -2.1313    1.0000 </r>
       <r>    2.8207    1.0000 </r>
       <r>    2.8207    1.0000 </r>
       <r>    2.8207    1.0000 </r>
       <r>    2.8207    1.0000 </r>
       <r>    2.8207    1.0000 </r>
       <r>    2.8207    1.0000 </r>
       <r>    5.6141    1.0000 </r>
       <r>    5.6141    1.0000 </r>
       <r>    5.6141    1.0000 </r>
       <r>    6.3656    0.0000 </r>
       <r>    6.3656    0.0000 </r>
       <r>    6.3656    0.0000 </r>
       <r>    6.3656    0.0000 </r>
       <r>    6.3656    0.0000 </r>
       <r>    6.3656    0.0000 </r>
       <r>    8.1701    0.0000 </r>
       <r>    8.1701    0.0000 </r>
      </set>
      <set comment="kpoint 2">
       <r>   -5.9306    1.0000 </r>
       <r>   -3.8482    1.0000 </r>
       <r>   -2.0576    1.0000 </r>
       <r>   -2.0576    1.0000 </r>
       <r>   -2.0576    1.0000 </r>
       <r>   -2.0576    1.0000 </r>
       <r>   -0.0977    1.0000 </r>
       <r>    2.2758    1.0000 </r>
       <r>    2.2758    1.0000 </r>
       <r>    2.2758    1.0000 </r>
       <r>    2.2758    1.0000 </r>
       <r>    3.0621    1.0000 </r>
       <r>    3.0621    1.0000 </r>
       <r>    4.2615    1.0000 </r>
       <r>    4.8277    1.0000 </r>
       <r>    4.8277    1.0000 </r>
       <r>    6.2644    0.0000 </r>
       <r>    7.1898    0.0000 </r>
       <r>    7.5998    0.0000 </r>
       <r>    7.5998    0.0000 </r>
       <r>    7.5998    0.0000 </r>
       <r>    7.5998    0.0000 </r>
       <r>    7.6290    0.0000 </r>
       <r>    9.2847    0.0000 </r>
      </set>
      <set comment="kpoint 3">
       <r>   -5.1363    1.0000 </r>
       <r>   -5.1363    1.0000 </r>
       <r>   -1.9768    1.0000 </r>
       <r>   -1.9768    1.0000 </r>
       <r>   -1.9768    1.0000 </r>
       <r>   -1.9768    1.0000 </r>
       <r>    1.8541    1.0000 </r>
       <r>    1.8541    1.0000 </r>
       <r>    1.8541    1.0000 </r>
       <r>    1.8541    1.0000 </r>
       <r>    2.0955    1.0000 </r>
       <r>    2.0955    1.0000 </r>
       <r>    3.7660    1.0000 </r>
       <r>    3.7660    1.0000 </r>
       <r>    3.7660    1.0000 </r>
       <r>    3.7660    1.0000 </r>
       <r>    6.7653    0.0000 </r>
       <r>    6.7653    0.0000 </r>
       <r>    8.7491    0.0000 </r>
       <r>    8.7491    0.0000 </r>
       <r>    9.8838    0.0000 </r>
       <r>    9.8838    0.0000 </r>
       <r>    9.8838    0.0000 </r>
       <r>    9.8838    0.0000 </r>
      </set>
      <set comment="kpoint 4">
       <r>   -5.6682    1.0000 </r>
       <r>   -3.6549    1.0000 </r>
       <r>   -3.6549    1.0000 </r>
       <r>   -2.5461    1.0000 </r>
       <r>   -1.5490    1.0000 </r>
       <r>   -0.3129    1.0000 </r>
       <r>   -0.3129    1.0000 </r>
       <r>    1.4149    1.0000 </r>
       <r>    2.3271    1.0000 </r>
       <r>    2.3271    1.0000 </r>
       <r>    2.9189    1.0000 </r>
       <r>    2.9189    1.0000 </r>
       <r>    2.9396    1.0000 </r>
       <r>    3.2390    1.0000 </r>
       <r>    4.0254    1.0000 </r>
       <r>    5.3243    1.0000 </r>
       <r>    6.8481    0.0000 </r>
       <r>    7.5695    0.0000 </r>
       <r>    7.5695    0.0000 </r>
       <r>    8.2725    0.0000 </r>
       <r>    8.2725    0.0000 </r>
       <r>    8.5810    0.0000 </r>
       <r>    8.7223    0.0000 </r>
       <r>    8.9440    0.0000 </r>
      </set>
      <set comment="kpoint 5">
       <r>   -4.8941    1.0000 </r>
       <r>   -4.8941    1.0000 </r>
       <r>   -3.1452    1.0000 </r>
       <r>   -3.1452    1.0000 </r>
       <r>   -0.9034    1.0000 </r>
       <r>   -0.9034    1.0000 </r>
       <r>    1.3461    1.0000 </r>
       <r>    1.3461    1.0000 </r>
       <r>    1.4849    1.0000 </r>
       <r>    1.4849    1.0000 </r>
       <r>    2.9627    1.0000 </r>
       <r>    2.9627    1.0000 </r>
       <r>    3.0895    1.0000 </r>
       <r>    3.0895    1.0000 </r>
       <r>    4.2142    1.0000 </r>
       <r>    4.2142    1.0000 </r>
       <r>    8.0567    0.0000 </r>
       <r>    8.0567    0.0000 </r>
       <r>    8.4781    0.0000 </r>
       <r>    8.4781    0.0000 </r>
       <r>    9.4396    0.0000 </r>
       <r>    9.4396    0.0000 </r>
       <r>    9.8167    0.0000 </r>
       <r>    9.8170    0.0000 </r>
      </set>
      <set comment="kpoint 6">
       <r>   -4.1951    1.0000 </r>
       <r>   -4.1951    1.0000 </r>
       <r>   -4.1951    1.0000 </r>
       <r>   -4.1951    1.0000 </r>
       <r>    0.1752    1.0000 </r>
       <r>    0.1752    1.0000 </r>
       <r>    0.1752    1.0000 </r>
       <r>    0.1752    1.0000 </r>
       <r>    1.9460    1.0000 </r>
       <r>    1.9460    1.0000 </r>
       <r>    1.9460    1.0000 </r>
       <r>    1.9460    1.0000 </r>
       <r>    4.3121    1.0000 </r>
       <r>    4.3121    1.0000 </r>
       <r>    4.3121    1.0000 </r>
       <r>    4.3121    1.0000 </r>
       <r>    8.0510    0.0000 </r>
       <r>    8.0510    0.0000 </r>
       <r>    8.0510    0.0000 </r>
       <r>    8.0510    0.0000 </r>
       <r>   10.3615    0.0000 </r>
       <r>   10.3615    0.0000 </r>
       <r>   10.3621    0.0000 </r>
       <r>   10.3639    0.0000 </r>
      </set>
      <set comment="kpoint 7">
       <r>   -5.4139    1.0000 </r>
       <r>   -3.5354    1.0000 </r>
       <r>   -3.5354    1.0000 </r>
       <r>   -3.5354    1.0000 </r>
       <r>   -0.7087    1.0000 </r>
       <r>   -0.7087    1.0000 </r>
       <r>   -0.7087    1.0000 </r>
       <r>    1.7282    1.0000 </r>
       <r>    2.1525    1.0000 </r>
       <r>    2.1525    1.0000 </r>
       <r>    2.1525    1.0000 </r>
       <r>    3.4549    1.0000 </r>
       <r>    3.4549    1.0000 </r>
       <r>    3.4549    1.0000 </r>
       <r>    4.8692    1.0000 </r>
       <r>    4.8692    1.0000 </r>
       <r>    7.1556    0.0000 </r>
       <r>    7.1556    0.0000 </r>
       <r>    7.1556    0.0000 </r>
       <r>    7.5717    0.0000 </r>
       <r>    9.1033    0.0000 </r>
       <r>    9.1033    0.0000 </r>
       <r>   10.0451    0.0000 </r>
       <r>   10.0451    0.0000 </r>
      </set>
      <set comment="kpoint 8">
       <r>   -4.6723    1.0000 </r>
       <r>   -4.6723    1.0000 </r>
       <r>   -3.3910    1.0000 </r>
       <r>   -3.3910    1.0000 </r>
       <r>   -1.0922    1.0000 </r>
       <r>   -1.0922    1.0000 </r>
       <r>    0.3871    1.0000 </r>
       <r>    0.3871    1.0000 </r>
       <r>    2.2274    1.0000 </r>
       <r>    2.2274    1.0000 </r>
       <r>    3.5041    1.0000 </r>
       <r>    3.5041    1.0000 </r>
       <r>    3.8058    1.0000 </r>
       <r>    3.8058    1.0000 </r>
       <r>    4.0607    1.0000 </r>
       <r>    4.0607    1.0000 </r>
       <r>    7.8414    0.0000 </r>
       <r>    7.8414    0.0000 </r>
       <r>    8.6367    0.0000 </r>
       <r>    8.6367    0.0000 </r>
       <r>    8.7601    0.0000 </r>
       <r>    8.7601    0.0000 </r>
       <r>    9.2054    0.0000 </r>
       <r>    9.2054    0.0000 </r>
      </set>
      <set comment="kpoint 9">
       <r>   -4.0709    1.0000 </r>
       <r>   -4.0709    1.0000 </r>
       <r>   -4.0709    1.0000 </r>
       <r>   -4.0709    1.0000 </r>
       <r>   -0.6817    1.0000 </r>
       <r>   -0.6817    1.0000 </r>
       <r>   -0.6817    1.0000 </r>
       <r>   -0.6817    1.0000 </r>
       <r>    3.1938    1.0000 </r>
       <r>    3.1938    1.0000 </r>
       <r>    3.1938    1.0000 </r>
       <r>    3.1938    1.0000 </r>
       <r>    4.3718    1.0000 </r>
       <r>    4.3718    1.0000 </r>
       <r>    4.3718    1.0000 </r>
       <r>    4.3718    1.0000 </r>
       <r>    7.9253    0.0000 </r>
       <r>    7.9253    0.0000 </r>
       <r>    7.9253    0.0000 </r>
       <r>    7.9253    0.0000 </r>
       <r>    9.2210    0.0000 </r>
       <r>    9.2210    0.0000 </r>
       <r>    9.2210    0.0000 </r>
       <r>    9.2210    0.0000 </r>
      </set>
      <set comment="kpoint 10">
       <r>   -3.9207    1.0000 </r>
       <r>   -3.9207    1.0000 </r>
       <r>   -3.9207    1.0000 </r>
       <r>   -3.9207    1.0000 </r>
       <r>   -1.2532    1.0000 </r>
       <r>   -1.2532    1.0000 </r>
       <r>   -1.2532    1.0000 </r>
       <r>   -1.2532    1.0000 </r>
       <r>    4.4359    1.0000 </r>
       <r>    4.4359    1.0000 </r>
       <r>    4.4359    1.0000 </r>
       <r>    4.4359    1.0000 </r>
       <r>    4.4359    1.0000 </r>
       <r>    4.4359    1.0000 </r>
       <r>    4.4359    1.0000 </r>
       <r>    4.4359    1.0000 </r>
       <r>    7.0790    0.0000 </r>
       <r>    7.0790    0.0000 </r>
       <r>    7.0790    0.0000 </r>
       <r>    7.0790    0.0000 </r>
       <r>    8.9629    0.0000 </r>
       <r>    8.9629    0.0000 </r>
       <r>    8.9629    0.0000 </r>
       <r>    8.9629    0.0000 </r>
      </set>
     </set>
    </set>
   </array>
  </eigenvalues>
  <separator name="orbital magnetization" >
   <v name="MAGDIPOLOUT">      0.00000000      0.00000000      0.00000000</v>
  </separator>
  <dos>
   <i name="efermi">      5.84976614 </i>
   <total>
    <array>
     <dimension dim="1">gridpoints</dimension>
     <dimension dim="2">spin</dimension>
     <field>energy</field>
     <field>total</field>
     <field>integrated</field>
     <set>
      <set comment="spin 1">
       <r>    -7.0267     0.0000     0.0000 </r>
       <r>    -6.9659     0.0000     0.0000 </r>
       <r>    -6.9052     0.0000     0.0000 </r>
       <r>    -6.8445     0.0000     0.0000 </r>
       <r>    -6.7838     0.0000     0.0000 </r>
       <r>    -6.7230     0.0000     0.0000 </r>
       <r>    -6.6623     0.0000     0.0000 </r>
       <r>    -6.6016     0.0000     0.0000 </r>
       <r>    -6.5408     0.0000     0.0000 </r>
       <r>    -6.4801     0.0000     0.0000 </r>
       <r>    -6.4194     0.0000     0.0000 </r>
       <r>    -6.3587     0.0000     0.0000 </r>
       <r>    -6.2979     0.0013     0.0001 </r>
       <r>    -6.2372     0.0693     0.0043 </r>
       <r>    -6.1765     0.3071     0.0229 </r>
       <r>    -6.1157     0.1320     0.0310 </r>
       <r>    -6.0550     0.0056     0.0313 </r>
       <r>    -5.9943     0.1098     0.0380 </r>
       <r>    -5.9336     1.3297     0.1187 </r>
       <r>    -5.8728     1.4892     0.2092 </r>
       <r>    -5.8121     0.1569     0.2187 </r>
       <r>    -5.7514     0.0586     0.2222 </r>
       <r>    -5.6906     1.5638     0.3172 </r>
       <r>    -5.6299     3.6918     0.5414 </r>
       <r>    -5.5692     0.8462     0.5928 </r>
       <r>    -5.5084     0.0312     0.5947 </r>
       <r>    -5.4477     0.6821     0.6361 </r>
       <r>    -5.3870     2.5001     0.7879 </r>
       <r>    -5.3263     0.8919     0.8421 </r>
       <r>    -5.2655     0.0275     0.8438 </r>
       <r>    -5.2048     0.0811     0.8487 </r>
       <r>    -5.1441     1.1944     0.9212 </r>
       <r>    -5.0833     1.6048     1.0187 </r>
       <r>    -5.0226     0.2066     1.0312 </r>
       <r>    -4.9619     0.3407     1.0519 </r>
       <r>    -4.9012     4.8548     1.3467 </r>
       <r>    -4.8404     6.3573     1.7328 </r>
       <r>    -4.7797     0.8047     1.7817 </r>
       <r>    -4.7190     1.1483     1.8514 </r>
       <r>    -4.6582     6.9324     2.2724 </r>
       <r>    -4.5975     4.0501     2.5184 </r>
       <r>    -4.5368     0.2112     2.5312 </r>
       <r>    -4.4761     0.0008     2.5312 </r>
       <r>    -4.4153     0.0000     2.5313 </r>
       <r>    -4.3546     0.0000     2.5313 </r>
       <r>    -4.2939     0.0161     2.5322 </r>
       <r>    -4.2331     0.8540     2.5841 </r>
       <r>    -4.1724     3.7207     2.8100 </r>
       <r>    -4.1117     3.0616     2.9960 </r>
       <r>    -4.0510     7.3337     3.4413 </r>
       <r>    -3.9902     3.4505     3.6509 </r>
       <r>    -3.9295     0.9478     3.7084 </r>
       <r>    -3.8688     1.9180     3.8249 </r>
       <r>    -3.8080     1.9716     3.9446 </r>
       <r>    -3.7473     0.4457     3.9717 </r>
       <r>    -3.6866     2.2410     4.1078 </r>
       <r>    -3.6259     7.5893     4.5687 </r>
       <r>    -3.5651     4.8774     4.8649 </r>
       <r>    -3.5044     7.6036     5.3267 </r>
       <r>    -3.4437     3.1213     5.5162 </r>
       <r>    -3.3829     6.5015     5.9110 </r>
       <r>    -3.3222     4.7470     6.1993 </r>
       <r>    -3.2615     0.3248     6.2190 </r>
       <r>    -3.2007     0.7136     6.2624 </r>
       <r>    -3.1400     6.1796     6.6376 </r>
       <r>    -3.0793     5.0681     6.9454 </r>
       <r>    -3.0186     0.3819     6.9686 </r>
       <r>    -2.9578     0.0021     6.9687 </r>
       <r>    -2.8971     0.0000     6.9687 </r>
       <r>    -2.8364     0.0000     6.9688 </r>
       <r>    -2.7756     0.0000     6.9688 </r>
       <r>    -2.7149     0.0000     6.9688 </r>
       <r>    -2.6542     0.0069     6.9692 </r>
       <r>    -2.5935     0.5503     7.0026 </r>
       <r>    -2.5327     3.4406     7.2115 </r>
       <r>    -2.4720     2.0658     7.3370 </r>
       <r>    -2.4113     0.1110     7.3437 </r>
       <r>    -2.3505     0.0004     7.3437 </r>
       <r>    -2.2898     0.0000     7.3438 </r>
       <r>    -2.2291     0.0087     7.3443 </r>
       <r>    -2.1684     0.4560     7.3720 </r>
       <r>    -2.1076     2.8138     7.5429 </r>
       <r>    -2.0469     7.5680     8.0025 </r>
       <r>    -1.9862     6.7648     8.4133 </r>
       <r>    -1.9254     3.5482     8.6287 </r>
       <r>    -1.8647     0.4482     8.6560 </r>
       <r>    -1.8040     0.0047     8.6562 </r>
       <r>    -1.7433     0.0000     8.6563 </r>
       <r>    -1.6825     0.0005     8.6563 </r>
       <r>    -1.6218     0.1218     8.6637 </r>
       <r>    -1.5611     2.1429     8.7938 </r>
       <r>    -1.5003     3.3899     8.9997 </r>
       <r>    -1.4396     0.5138     9.0309 </r>
       <r>    -1.3789     0.0065     9.0313 </r>
       <r>    -1.3182     0.0677     9.0354 </r>
       <r>    -1.2574     0.8632     9.0878 </r>
       <r>    -1.1967     1.0331     9.1505 </r>
       <r>    -1.1360     1.4257     9.2371 </r>
       <r>    -1.0752     7.1202     9.6695 </r>
       <r>    -1.0145     3.7355     9.8964 </r>
       <r>    -0.9538     1.1127     9.9640 </r>
       <r>    -0.8930     6.6434    10.3674 </r>
       <r>    -0.8323     4.4848    10.6398 </r>
       <r>    -0.7716     0.8026    10.6885 </r>
       <r>    -0.7109     7.8698    11.1664 </r>
       <r>    -0.6501    13.3999    11.9802 </r>
       <r>    -0.5894     2.8388    12.1526 </r>
       <r>    -0.5287     0.0603    12.1562 </r>
       <r>    -0.4679     0.0002    12.1563 </r>
       <r>    -0.4072     0.0471    12.1591 </r>
       <r>    -0.3465     2.0652    12.2845 </r>
       <r>    -0.2858     7.5038    12.7402 </r>
       <r>    -0.2250     2.6543    12.9014 </r>
       <r>    -0.1643     0.1713    12.9118 </r>
       <r>    -0.1036     1.2485    12.9877 </r>
       <r>    -0.0428     1.5607    13.0824 </r>
       <r>     0.0179     0.1847    13.0937 </r>
       <r>     0.0786     0.0211    13.0949 </r>
       <r>     0.1393     0.9397    13.1520 </r>
       <r>     0.2001     3.7291    13.3785 </r>
       <r>     0.2608     1.4412    13.4660 </r>
       <r>     0.3215     0.4377    13.4926 </r>
       <r>     0.3823     5.1058    13.8026 </r>
       <r>     0.4430     6.1472    14.1759 </r>
       <r>     0.5037     0.6988    14.2184 </r>
       <r>     0.5644     0.0060    14.2187 </r>
       <r>     0.6252     0.0000    14.2187 </r>
       <r>     0.6859     0.0000    14.2188 </r>
       <r>     0.7466     0.0000    14.2188 </r>
       <r>     0.8074     0.0000    14.2188 </r>
       <r>     0.8681     0.0000    14.2188 </r>
       <r>     0.9288     0.0000    14.2188 </r>
       <r>     0.9896     0.0000    14.2188 </r>
       <r>     1.0503     0.0000    14.2188 </r>
       <r>     1.1110     0.0000    14.2188 </r>
       <r>     1.1717     0.0000    14.2188 </r>
       <r>     1.2325     0.0081    14.2192 </r>
       <r>     1.2932     0.8255    14.2694 </r>
       <r>     1.3539     6.6887    14.6756 </r>
       <r>     1.4147     7.8667    15.1533 </r>
       <r>     1.4754     7.7354    15.6231 </r>
       <r>     1.5361     6.8398    16.0384 </r>
       <r>     1.5968     0.9016    16.0932 </r>
       <r>     1.6576     0.1030    16.0995 </r>
       <r>     1.7183     1.5093    16.1911 </r>
       <r>     1.7790     2.3070    16.3312 </r>
       <r>     1.8398     2.3246    16.4724 </r>
       <r>     1.9005     4.0831    16.7203 </r>
       <r>     1.9612     4.0841    16.9684 </r>
       <r>     2.0219     2.0260    17.0914 </r>
       <r>     2.0827     1.4425    17.1790 </r>
       <r>     2.1434     6.4472    17.5705 </r>
       <r>     2.2041    10.1125    18.1847 </r>
       <r>     2.2649    13.1820    18.9852 </r>
       <r>     2.3256    13.9331    19.8313 </r>
       <r>     2.3863     6.8160    20.2453 </r>
       <r>     2.4470     0.5883    20.2810 </r>
       <r>     2.5078     0.0043    20.2812 </r>
       <r>     2.5685     0.0000    20.2812 </r>
       <r>     2.6292     0.0000    20.2813 </r>
       <r>     2.6900     0.0003    20.2813 </r>
       <r>     2.7507     0.0735    20.2857 </r>
       <r>     2.8114     1.1671    20.3566 </r>
       <r>     2.8721     3.0094    20.5394 </r>
       <r>     2.9329    11.9938    21.2677 </r>
       <r>     2.9936    14.9589    22.1762 </r>
       <r>     3.0543     7.2231    22.6148 </r>
       <r>     3.1151    10.9086    23.2773 </r>
       <r>     3.1758     7.0523    23.7056 </r>
       <r>     3.2365     9.9595    24.3104 </r>
       <r>     3.2973     4.3370    24.5738 </r>
       <r>     3.3580     0.3644    24.5959 </r>
       <r>     3.4187     1.9485    24.7142 </r>
       <r>     3.4794    10.3526    25.3429 </r>
       <r>     3.5402    10.3683    25.9726 </r>
       <r>     3.6009     1.9567    26.0914 </r>
       <r>     3.6616     0.0483    26.0944 </r>
       <r>     3.7224     0.7741    26.1414 </r>
       <r>     3.7831     6.6643    26.5461 </r>
       <r>     3.8438     9.2468    27.1076 </r>
       <r>     3.9045     1.7991    27.2169 </r>
       <r>     3.9653     0.3481    27.2380 </r>
       <r>     4.0260     4.8282    27.5312 </r>
       <r>     4.0867    10.2772    28.1554 </r>
       <r>     4.1475     3.3790    28.3606 </r>
       <r>     4.2082     5.2727    28.6808 </r>
       <r>     4.2689     8.5550    29.2003 </r>
       <r>     4.3296     6.9507    29.6224 </r>
       <r>     4.3904     9.5327    30.2013 </r>
       <r>     4.4511     5.9654    30.5636 </r>
       <r>     4.5118     1.4599    30.6523 </r>
       <r>     4.5726     0.0654    30.6562 </r>
       <r>     4.6333     0.0002    30.6563 </r>
       <r>     4.6940     0.0005    30.6563 </r>
       <r>     4.7547     0.1248    30.6639 </r>
       <r>     4.8155     2.6549    30.8251 </r>
       <r>     4.8762     7.6351    31.2888 </r>
       <r>     4.9369     3.7593    31.5171 </r>
       <r>     4.9977     0.2325    31.5312 </r>
       <r>     5.0584     0.0012    31.5312 </r>
       <r>     5.1191     0.0000    31.5313 </r>
       <r>     5.1798     0.0001    31.5313 </r>
       <r>     5.2406     0.0549    31.5346 </r>
       <r>     5.3013     1.5343    31.6278 </r>
       <r>     5.3620     3.7017    31.8526 </r>
       <r>     5.4228     0.8674    31.9052 </r>
       <r>     5.4835     0.0167    31.9063 </r>
       <r>     5.5442     0.0371    31.9085 </r>
       <r>     5.6050     0.5778    31.9436 </r>
       <r>     5.6657     0.8174    31.9932 </r>
       <r>     5.7264     0.1102    31.9999 </r>
       <r>     5.7871     0.0011    32.0000 </r>
       <r>     5.8479     0.0000    32.0000 </r>
       <r>     5.9086     0.0000    32.0000 </r>
       <r>     5.9693     0.0000    32.0000 </r>
       <r>     6.0301     0.0000    32.0000 </r>
       <r>     6.0908     0.0000    32.0000 </r>
       <r>     6.1515     0.0022    32.0001 </r>
       <r>     6.2122     0.2144    32.0131 </r>
       <r>     6.2730     1.6370    32.1126 </r>
       <r>     6.3337     1.7240    32.2173 </r>
       <r>     6.3944     1.9574    32.3361 </r>
       <r>     6.4552     0.6226    32.3739 </r>
       <r>     6.5159     0.0174    32.3750 </r>
       <r>     6.5766     0.0000    32.3750 </r>
       <r>     6.6373     0.0005    32.3750 </r>
       <r>     6.6981     0.0881    32.3804 </r>
       <r>     6.7588     1.2664    32.4573 </r>
       <r>     6.8195     2.8360    32.6295 </r>
       <r>     6.8803     3.9512    32.8695 </r>
       <r>     6.9410     1.0940    32.9359 </r>
       <r>     7.0017     0.0561    32.9393 </r>
       <r>     7.0624     0.6818    32.9807 </r>
       <r>     7.1232     3.4415    33.1897 </r>
       <r>     7.1839     8.9810    33.7351 </r>
       <r>     7.2446     4.1027    33.9843 </r>
       <r>     7.3054     0.2572    33.9999 </r>
       <r>     7.3661     0.0018    34.0000 </r>
       <r>     7.4268     0.0004    34.0000 </r>
       <r>     7.4876     0.1704    34.0104 </r>
       <r>     7.5483     5.1857    34.3253 </r>
       <r>     7.6090    17.2072    35.3703 </r>
       <r>     7.6697     8.6203    35.8938 </r>
       <r>     7.7305     0.7229    35.9377 </r>
       <r>     7.7912     0.9613    35.9960 </r>
       <r>     7.8519     6.8963    36.4149 </r>
       <r>     7.9127     8.6674    36.9412 </r>
       <r>     7.9734     7.2972    37.3844 </r>
       <r>     8.0341     6.0441    37.7514 </r>
       <r>     8.0948    10.9756    38.4180 </r>
       <r>     8.1556     2.6950    38.5816 </r>
       <r>     8.2163     1.3066    38.6610 </r>
       <r>     8.2770     6.2096    39.0381 </r>
       <r>     8.3378     5.1473    39.3507 </r>
       <r>     8.3985     0.5484    39.3840 </r>
       <r>     8.4592     3.5139    39.5974 </r>
       <r>     8.5199     7.4915    40.0523 </r>
       <r>     8.5807     4.9373    40.3522 </r>
       <r>     8.6414     9.0664    40.9027 </r>
       <r>     8.7021     7.9803    41.3874 </r>
       <r>     8.7629    11.7032    42.0981 </r>
       <r>     8.8236     7.1339    42.5313 </r>
       <r>     8.8843     0.8192    42.5811 </r>
       <r>     8.9450     3.4852    42.7927 </r>
       <r>     9.0058     3.9851    43.0348 </r>
       <r>     9.0665     1.6809    43.1368 </r>
       <r>     9.1272     5.1756    43.4511 </r>
       <r>     9.1880     7.7704    43.9230 </r>
       <r>     9.2487    15.1947    44.8458 </r>
       <r>     9.3094     5.8117    45.1987 </r>
       <r>     9.3701     1.1263    45.2671 </r>
       <r>     9.4309     4.6956    45.5523 </r>
       <r>     9.4916     6.5019    45.9471 </r>
       <r>     9.5523     0.8616    45.9995 </r>
       <r>     9.6131     0.0088    46.0000 </r>
       <r>     9.6738     0.0003    46.0000 </r>
       <r>     9.7345     0.1229    46.0075 </r>
       <r>     9.7953     3.2622    46.2056 </r>
       <r>     9.8560     8.6431    46.7305 </r>
       <r>     9.9167     5.3824    47.0574 </r>
       <r>     9.9774     1.3181    47.1374 </r>
       <r>    10.0382     3.2725    47.3361 </r>
       <r>    10.0989     4.2293    47.5930 </r>
       <r>    10.1596     0.5225    47.6247 </r>
       <r>    10.2204     0.0051    47.6250 </r>
       <r>    10.2811     0.0670    47.6291 </r>
       <r>    10.3418     1.6731    47.7307 </r>
       <r>    10.4025     3.6491    47.9523 </r>
       <r>    10.4633     0.7724    47.9992 </r>
       <r>    10.5240     0.0132    48.0000 </r>
       <r>    10.5847     0.0000    48.0000 </r>
       <r>    10.6455     0.0000    48.0000 </r>
       <r>    10.7062     0.0000    48.0000 </r>
       <r>    10.7669     0.0000    48.0000 </r>
       <r>    10.8276     0.0000    48.0000 </r>
       <r>    10.8884     0.0000    48.0000 </r>
       <r>    10.9491     0.0000    48.0000 </r>
       <r>    11.0098     0.0000    48.0000 </r>
       <r>    11.0706     0.0000    48.0000 </r>
       <r>    11.1313     0.0000    48.0000 </r>
       <r>    11.1920     0.0000    48.0000 </r>
      </set>
     </set>
    </array>
   </total>
  </dos>
 </calculation>
 <structure name="finalpos" >
  <crystal>
   <varray name="basis" >
    <v>       5.46945757       0.00000000       0.00000000 </v>
    <v>       0.00000000       5.46945757       0.00000000 </v>
    <v>       0.00000000       0.00000000       5.46945757 </v>
   </varray>
   <i name="volume">    163.61863769 </i>
   <varray name="rec_basis" >
    <v>       0.18283349      -0.00000000       0.00000000 </v>
    <v>       0.00000000       0.18283349       0.00000000 </v>
    <v>      -0.00000000      -0.00000000       0.18283349 </v>
   </varray>
  </crystal>
  <varray name="positions" >
   <v>       0.00000000       0.00000000       0.00000000 </v>
   <v>       0.00000000       0.50000000       0.50000000 </v>
   <v>       0.50000000       0.50000000       0.00000000 </v>
   <v>       0.50000000       0.00000000       0.50000000 </v>
   <v>       0.75000000       0.25000000       0.75000000 </v>
   <v>       0.25000000       0.25000000       0.25000000 </v>
   <v>       0.25000000       0.75000000       0.75000000 </v>
   <v>       0.75000000       0.75000000       0.25000000 </v>
  </varray>
 </structure>
</modeling>
