#  Step Nr.  Time[fs]     Kin.[a.u.]    Temp[K]     Pot.[a.u.]     Cons Qty[a.u.]  UsedTime[s]
         1       0.500     0.123456    300.000    -34.123456     -34.000000       1.234
         2       1.000     0.123500    301.230    -34.123450     -33.999950       1.200
         3       1.500     0.123400    299.450    -34.123448     -33.999948       1.180
