6
i =       0, time =       0.000, E =      -34.1234567890
O         1.234567    2.345678    3.456789
H         1.567890    2.678901    3.789012
H         0.901234    2.012345    3.123456
O         5.678901    6.789012    7.890123
H         6.012345    7.123456    8.234567
H         5.345678    6.456789    7.567890
6
i =       1, time =       0.500, E =      -34.1234500000
O         1.234570    2.345680    3.456790
H         1.567892    2.678903    3.789014
H         0.901236    2.012347    3.123458
O         5.678903    6.789014    7.890125
H         6.012347    7.123458    8.234569
H         5.345680    6.456791    7.567892
6
i =       2, time =       1.000, E =      -34.1234480000
O         1.234573    2.345683    3.456793
H         1.567895    2.678906    3.789017
H         0.901239    2.012350    3.123461
O         5.678906    6.789017    7.890128
H         6.012350    7.123461    8.234572
H         5.345683    6.456794    7.567895
6
i =       3, time =       1.500, E =      -34.1234460000
O         1.234576    2.345686    3.456796
H         1.567898    2.678909    3.789020
H         0.901242    2.012353    3.123464
O         5.678909    6.789020    7.890131
H         6.012353    7.123464    8.234575
H         5.345686    6.456797    7.567898
