     422
Lattice="20.920      0.000      0.000      0.000     18.120      0.000     -2.096      0.000     13.235" Properties="species:S:1:pos:R:3" Step=0 Time=0.000 Energy=-4509.5457394811
 Si         0.9229035815        1.5101208000       -2.8101925958
  O         5.0624252062        2.6150784000       -3.3271526240
  O         0.9658081368        1.5101208000       -1.1632262386
 Si         3.5379035815        6.0401208000       -2.8101925958
  O         2.4474252062        7.1450784000       -3.3271526240
  O         3.5808081368        6.0401208000       -1.1632262386
 Si         4.3070964185        1.5101208000        2.8101925958
  O         0.1675747938        2.6150784000        3.3271526240
  O         4.2641918632        1.5101208000        1.1632262386
 Si         1.6920964185        6.0401208000        2.8101925958
  O         2.7825747938        7.1450784000        3.3271526240
  O         1.6491918632        6.0401208000        1.1632262386
 Si         4.3070964185        7.5500604000        2.8101925958
  O         0.1675747938        6.4451028000        3.3271526240
  O         4.2641918632        7.5500604000        1.1632262386
 Si         1.6920964185        3.0200604000        2.8101925958
  O         2.7825747938        1.9151028000        3.3271526240
  O         1.6491918632        3.0200604000        1.1632262386
 Si         0.9229035815        7.5500604000       -2.8101925958
  O         5.0624252062        6.4451028000       -3.3271526240
  O         0.9658081368        7.5500604000       -1.1632262386
 Si         3.5379035815        3.0200604000       -2.8101925958
  O         2.4474252062        1.9151028000       -3.3271526240
  O         3.5808081368        3.0200604000       -1.1632262386
 Al         0.0000000000        3.0200604000        0.0000000000
 Al         2.6150000000        7.5500604000        0.0000000000
 Al         0.0000000000        6.0401208000        0.0000000000
 Al         2.6150000000        1.5099396000        0.0000000000
  O         0.6618631175        0.0000000000       -3.3982247016
  O         3.2766539175        4.5300000000       -3.3982247016
  O         4.5683460825        0.0000000000        3.3982247016
  O         1.9533460825        4.5300000000        3.3982247016
  O         0.9934886540        4.5300000000       -1.1081685398
  O         3.6086978540        0.0000000000       -1.1081685398
  O         4.2363021460        4.5300000000        1.1081685398
  O         1.6213021460        0.0000000000        1.1081685398
 Si         6.1529035815        1.5101208000       -2.8101925958
  O        10.2924252062        2.6150784000       -3.3271526240
  O         6.1958081368        1.5101208000       -1.1632262386
 Si         8.7679035815        6.0401208000       -2.8101925958
  O         7.6774252062        7.1450784000       -3.3271526240
  O         8.8108081368        6.0401208000       -1.1632262386
 Si         9.5370964185        1.5101208000        2.8101925958
  O         5.3975747938        2.6150784000        3.3271526240
  O         9.4941918632        1.5101208000        1.1632262386
 Al         6.9220964185        6.0401208000        2.8101925958
  O         8.0125747938        7.1450784000        3.3271526240
  O         6.8791918632        6.0401208000        1.1632262386
 Si         9.5370964185        7.5500604000        2.8101925958
  O         5.3975747938        6.4451028000        3.3271526240
  O         9.4941918632        7.5500604000        1.1632262386
 Si         6.9220964185        3.0200604000        2.8101925958
  O         8.0125747938        1.9151028000        3.3271526240
  O         6.8791918632        3.0200604000        1.1632262386
 Si         6.1529035815        7.5500604000       -2.8101925958
  O        10.2924252062        6.4451028000       -3.3271526240
  O         6.1958081368        7.5500604000       -1.1632262386
 Si         8.7679035815        3.0200604000       -2.8101925958
  O         7.6774252062        1.9151028000       -3.3271526240
  O         8.8108081368        3.0200604000       -1.1632262386
 Al         5.2300000000        3.0200604000        0.0000000000
 Al         7.8450000000        7.5500604000        0.0000000000
 Al         5.2300000000        6.0401208000        0.0000000000
 Mg         7.8450000000        1.5099396000        0.0000000000
  O         5.8916539175        0.0000000000       -3.3982247016
  O         8.5066539175        4.5300000000       -3.3982247016
  O         9.7983460825        0.0000000000        3.3982247016
  O         7.1831368825        4.5300000000        3.3982247016
  O         6.2234886540        4.5300000000       -1.1081685398
  O         8.8384886540        0.0000000000       -1.1081685398
  O         9.4663021460        4.5300000000        1.1081685398
  O         6.8513021460        0.0000000000        1.1081685398
 Si        11.3829035815        1.5101208000       -2.8101925958
  O        15.5224252062        2.6150784000       -3.3271526240
  O        11.4258081368        1.5101208000       -1.1632262386
 Si        13.9979035815        6.0401208000       -2.8101925958
  O        12.9074252062        7.1450784000       -3.3271526240
  O        14.0408081368        6.0401208000       -1.1632262386
 Si        14.7670964185        1.5101208000        2.8101925958
  O        10.6275747938        2.6150784000        3.3271526240
  O        14.7241918632        1.5101208000        1.1632262386
 Si        12.1520964185        6.0401208000        2.8101925958
  O        13.2425747938        7.1450784000        3.3271526240
  O        12.1091918632        6.0401208000        1.1632262386
 Si        14.7670964185        7.5500604000        2.8101925958
  O        10.6275747938        6.4451028000        3.3271526240
  O        14.7241918632        7.5500604000        1.1632262386
 Si        12.1520964185        3.0200604000        2.8101925958
  O        13.2425747938        1.9151028000        3.3271526240
  O        12.1091918632        3.0200604000        1.1632262386
 Si        11.3829035815        7.5500604000       -2.8101925958
  O        15.5224252062        6.4451028000       -3.3271526240
  O        11.4258081368        7.5500604000       -1.1632262386
 Si        13.9979035815        3.0200604000       -2.8101925958
  O        12.9074252062        1.9151028000       -3.3271526240
  O        14.0408081368        3.0200604000       -1.1632262386
 Al        10.4600000000        3.0200604000        0.0000000000
 Al        13.0750000000        7.5500604000        0.0000000000
 Al        10.4600000000        6.0401208000        0.0000000000
 Al        13.0750000000        1.5099396000        0.0000000000
  O        11.1216539175        0.0000000000       -3.3982247016
  O        13.7366539175        4.5300000000       -3.3982247016
  O        15.0281368825        0.0000000000        3.3982247016
  O        12.4131368825        4.5300000000        3.3982247016
  O        11.4534886540        4.5300000000       -1.1081685398
  O        14.0684886540        0.0000000000       -1.1081685398
  O        14.6963021460        4.5300000000        1.1081685398
  O        12.0813021460        0.0000000000        1.1081685398
 Si        16.6129035815        1.5101208000       -2.8101925958
  O        20.7524252062        2.6150784000       -3.3271526240
  O        16.6558081368        1.5101208000       -1.1632262386
 Si        19.2279035815        6.0401208000       -2.8101925958
  O        18.1374252062        7.1450784000       -3.3271526240
  O        19.2708081368        6.0401208000       -1.1632262386
 Si        19.9970964185        1.5101208000        2.8101925958
  O        15.8575747938        2.6150784000        3.3271526240
  O        19.9541918632        1.5101208000        1.1632262386
 Si        17.3820964185        6.0401208000        2.8101925958
  O        18.4725747938        7.1450784000        3.3271526240
  O        17.3391918632        6.0401208000        1.1632262386
 Si        19.9970964185        7.5500604000        2.8101925958
  O        15.8575747938        6.4451028000        3.3271526240
  O        19.9541918632        7.5500604000        1.1632262386
 Si        17.3820964185        3.0200604000        2.8101925958
  O        18.4725747938        1.9151028000        3.3271526240
  O        17.3391918632        3.0200604000        1.1632262386
 Si        16.6129035815        7.5500604000       -2.8101925958
  O        20.7524252062        6.4451028000       -3.3271526240
  O        16.6558081368        7.5500604000       -1.1632262386
 Si        19.2279035815        3.0200604000       -2.8101925958
  O        18.1374252062        1.9151028000       -3.3271526240
  O        19.2708081368        3.0200604000       -1.1632262386
 Al        15.6900000000        3.0200604000        0.0000000000
 Al        18.3050000000        7.5500604000        0.0000000000
 Mg        15.6900000000        6.0401208000        0.0000000000
 Al        18.3050000000        1.5099396000        0.0000000000
  O        16.3516539175        0.0000000000       -3.3982247016
  O        18.9668631175        4.5300000000       -3.3982247016
  O        20.2581368825        0.0000000000        3.3982247016
  O        17.6433460825        4.5300000000        3.3982247016
  O        16.6834886540        4.5300000000       -1.1081685398
  O        19.2984886540        0.0000000000       -1.1081685398
  O        19.9265113460        4.5300000000        1.1081685398
  O        17.3113021460        0.0000000000        1.1081685398
 Si         0.9229035815       10.5701208000       -2.8101925958
  O         5.0624252062       11.6750784000       -3.3271526240
  O         0.9658081368       10.5701208000       -1.1632262386
 Si         3.5379035815       15.1001208000       -2.8101925958
  O         2.4474252062       16.2050784000       -3.3271526240
  O         3.5808081368       15.1001208000       -1.1632262386
 Si         4.3070964185       10.5701208000        2.8101925958
  O         0.1675747938       11.6750784000        3.3271526240
  O         4.2641918632       10.5701208000        1.1632262386
 Si         1.6920964185       15.1001208000        2.8101925958
  O         2.7825747938       16.2050784000        3.3271526240
  O         1.6491918632       15.1001208000        1.1632262386
 Si         4.3070964185       16.6100604000        2.8101925958
  O         0.1675747938       15.5051028000        3.3271526240
  O         4.2641918632       16.6100604000        1.1632262386
 Si         1.6920964185       12.0800604000        2.8101925958
  O         2.7825747938       10.9751028000        3.3271526240
  O         1.6491918632       12.0800604000        1.1632262386
 Si         0.9229035815       16.6100604000       -2.8101925958
  O         5.0624252062       15.5051028000       -3.3271526240
  O         0.9658081368       16.6100604000       -1.1632262386
 Si         3.5379035815       12.0800604000       -2.8101925958
  O         2.4474252062       10.9751028000       -3.3271526240
  O         3.5808081368       12.0800604000       -1.1632262386
 Al         0.0000000000       12.0800604000        0.0000000000
 Al         2.6150000000       16.6100604000        0.0000000000
 Al         0.0000000000       15.0999396000        0.0000000000
 Al         2.6150000000       10.5701208000        0.0000000000
  O         0.6618631175        9.0600000000       -3.3982247016
  O         3.2766539175       13.5900000000       -3.3982247016
  O         4.5683460825        9.0600000000        3.3982247016
  O         1.9533460825       13.5900000000        3.3982247016
  O         0.9934886540       13.5900000000       -1.1081685398
  O         3.6086978540        9.0600000000       -1.1081685398
  O         4.2363021460       13.5900000000        1.1081685398
  O         1.6213021460        9.0600000000        1.1081685398
 Si         6.1529035815       10.5701208000       -2.8101925958
  O        10.2924252062       11.6750784000       -3.3271526240
  O         6.1958081368       10.5701208000       -1.1632262386
 Si         8.7679035815       15.1001208000       -2.8101925958
  O         7.6774252062       16.2050784000       -3.3271526240
  O         8.8108081368       15.1001208000       -1.1632262386
 Si         9.5370964185       10.5701208000        2.8101925958
  O         5.3975747938       11.6750784000        3.3271526240
  O         9.4941918632       10.5701208000        1.1632262386
 Si         6.9220964185       15.1001208000        2.8101925958
  O         8.0125747938       16.2050784000        3.3271526240
  O         6.8791918632       15.1001208000        1.1632262386
 Si         9.5370964185       16.6100604000        2.8101925958
  O         5.3975747938       15.5051028000        3.3271526240
  O         9.4941918632       16.6100604000        1.1632262386
 Si         6.9220964185       12.0800604000        2.8101925958
  O         8.0125747938       10.9751028000        3.3271526240
  O         6.8791918632       12.0800604000        1.1632262386
 Si         6.1529035815       16.6100604000       -2.8101925958
  O        10.2924252062       15.5051028000       -3.3271526240
  O         6.1958081368       16.6100604000       -1.1632262386
 Si         8.7679035815       12.0800604000       -2.8101925958
  O         7.6774252062       10.9751028000       -3.3271526240
  O         8.8108081368       12.0800604000       -1.1632262386
 Mg         5.2300000000       12.0800604000        0.0000000000
 Al         7.8450000000       16.6100604000        0.0000000000
 Al         5.2300000000       15.0999396000        0.0000000000
 Al         7.8450000000       10.5701208000        0.0000000000
  O         5.8916539175        9.0600000000       -3.3982247016
  O         8.5066539175       13.5900000000       -3.3982247016
  O         9.7983460825        9.0600000000        3.3982247016
  O         7.1831368825       13.5900000000        3.3982247016
  O         6.2234886540       13.5900000000       -1.1081685398
  O         8.8384886540        9.0600000000       -1.1081685398
  O         9.4663021460       13.5900000000        1.1081685398
  O         6.8513021460        9.0600000000        1.1081685398
 Al        11.3829035815       10.5701208000       -2.8101925958
  O        15.5224252062       11.6750784000       -3.3271526240
  O        11.4258081368       10.5701208000       -1.1632262386
 Si        13.9979035815       15.1001208000       -2.8101925958
  O        12.9074252062       16.2050784000       -3.3271526240
  O        14.0408081368       15.1001208000       -1.1632262386
 Si        14.7670964185       10.5701208000        2.8101925958
  O        10.6275747938       11.6750784000        3.3271526240
  O        14.7241918632       10.5701208000        1.1632262386
 Si        12.1520964185       15.1001208000        2.8101925958
  O        13.2425747938       16.2050784000        3.3271526240
  O        12.1091918632       15.1001208000        1.1632262386
 Si        14.7670964185       16.6100604000        2.8101925958
  O        10.6275747938       15.5051028000        3.3271526240
  O        14.7241918632       16.6100604000        1.1632262386
 Si        12.1520964185       12.0800604000        2.8101925958
  O        13.2425747938       10.9751028000        3.3271526240
  O        12.1091918632       12.0800604000        1.1632262386
 Si        11.3829035815       16.6100604000       -2.8101925958
  O        15.5224252062       15.5051028000       -3.3271526240
  O        11.4258081368       16.6100604000       -1.1632262386
 Si        13.9979035815       12.0800604000       -2.8101925958
  O        12.9074252062       10.9751028000       -3.3271526240
  O        14.0408081368       12.0800604000       -1.1632262386
 Al        10.4600000000       12.0800604000        0.0000000000
 Al        13.0750000000       16.6100604000        0.0000000000
 Al        10.4600000000       15.0999396000        0.0000000000
 Al        13.0750000000       10.5701208000        0.0000000000
  O        11.1216539175        9.0600000000       -3.3982247016
  O        13.7366539175       13.5900000000       -3.3982247016
  O        15.0281368825        9.0600000000        3.3982247016
  O        12.4131368825       13.5900000000        3.3982247016
  O        11.4534886540       13.5900000000       -1.1081685398
  O        14.0684886540        9.0600000000       -1.1081685398
  O        14.6963021460       13.5900000000        1.1081685398
  O        12.0813021460        9.0600000000        1.1081685398
 Si        16.6129035815       10.5701208000       -2.8101925958
  O        20.7524252062       11.6750784000       -3.3271526240
  O        16.6558081368       10.5701208000       -1.1632262386
 Si        19.2279035815       15.1001208000       -2.8101925958
  O        18.1374252062       16.2050784000       -3.3271526240
  O        19.2708081368       15.1001208000       -1.1632262386
 Si        19.9970964185       10.5701208000        2.8101925958
  O        15.8575747938       11.6750784000        3.3271526240
  O        19.9541918632       10.5701208000        1.1632262386
 Si        17.3820964185       15.1001208000        2.8101925958
  O        18.4725747938       16.2050784000        3.3271526240
  O        17.3391918632       15.1001208000        1.1632262386
 Si        19.9970964185       16.6100604000        2.8101925958
  O        15.8575747938       15.5051028000        3.3271526240
  O        19.9541918632       16.6100604000        1.1632262386
 Si        17.3820964185       12.0800604000        2.8101925958
  O        18.4725747938       10.9751028000        3.3271526240
  O        17.3391918632       12.0800604000        1.1632262386
 Si        16.6129035815       16.6100604000       -2.8101925958
  O        20.7524252062       15.5051028000       -3.3271526240
  O        16.6558081368       16.6100604000       -1.1632262386
 Si        19.2279035815       12.0800604000       -2.8101925958
  O        18.1374252062       10.9751028000       -3.3271526240
  O        19.2708081368       12.0800604000       -1.1632262386
 Al        15.6900000000       12.0800604000        0.0000000000
 Al        18.3050000000       16.6100604000        0.0000000000
 Mg        15.6900000000       15.0999396000        0.0000000000
 Al        18.3050000000       10.5701208000        0.0000000000
  O        16.3516539175        9.0600000000       -3.3982247016
  O        18.9668631175       13.5900000000       -3.3982247016
  O        20.2581368825        9.0600000000        3.3982247016
  O        17.6433460825       13.5900000000        3.3982247016
  O        16.6834886540       13.5900000000       -1.1081685398
  O        19.2984886540        9.0600000000       -1.1081685398
  O        19.9265113460       13.5900000000        1.1081685398
  O        17.3113021460        9.0600000000        1.1081685398
  H         7.3180520190       13.5211440000       -0.9366426318
  H        12.5484494568       13.5265800000       -0.9365102815
  H        13.5997096676       13.5890940000        0.9362455811
  H        17.7788678568       13.5349152000       -0.9365102815
  H        18.8303372676       13.5584712000        0.9362455811
  H         3.1397096676       13.5856512000        0.9362455811
  H         2.0876336190       13.5142584000       -0.9366426318
  H         9.9342652946        9.0148812000       -0.9363779313
  H        10.9849188676        9.0460476000        0.9362455811
  H        15.1634494568        8.9962176000       -0.9365102815
  H        16.2169689432        8.9900568000        0.9365102815
  H        20.3916295435        8.9690376000       -0.9369073323
  H         4.7050811324        9.0802944000       -0.9362455811
  H         0.5251280676        9.0293772000        0.9362455811
  H         2.0902903324        4.5318120000       -0.9362455811
  H         3.1403372676        4.4939412000        0.9362455811
  H         7.3188678568        4.4754588000       -0.9365102815
  H         8.3703163054        4.5667836000        0.9363779313
  H        12.5496627324        4.5618912000       -0.9362455811
  H        13.6001280676        4.5071688000        0.9362455811
  H        17.7782612190        4.4654928000       -0.9366426318
  H        18.8342282188        4.4299776000        0.9367749820
  H        20.3942652946       -0.0433068000       -0.9363779313
  H        16.2149188676       -0.0148584000        0.9362455811
  H        15.1636586568       -0.0587088000       -0.9365102815
  H        10.9889770943        0.0969420000        0.9370396825
  H         9.9316085812        0.0895128000       -0.9367749820
  H         5.7547096676       -0.0009060000        0.9362455811
  H         4.7048928946       -0.0288108000       -0.9363779313
  H         0.5269689432       -0.0704868000        0.9365102815
  H         8.3699188676       13.5762288000        0.9362455811
  H         5.7553372676        9.0266592000        0.9362455811
 Na        14.6991498059       12.4453596000        6.6746871846
 Na        14.8283247029        5.6425680000        6.4970731657
 Na         9.6938580292       12.4536948000        6.7854643336
 Na         9.8230329262        5.6509032000        6.6078503146
 Na         3.8854633671       12.4281456000        6.7151863574
 Na         4.0146592263        5.6253540000        6.5374399882
  O         5.9045587566       17.2991640000        5.5297252788
  H         6.4215417928       16.3824732000        5.1767471950
  H         6.3815546364       18.1917552000        5.0739110604
  O        10.8761397597        9.7998396000        7.2167937580
  H        11.5314889996        9.4470432000        8.0401445864
  H         9.9043977009       10.1357844000        7.6355499099
  O         5.2600056426       15.0825444000        7.3908343205
  H         6.1124231554       14.4686388000        7.7492387640
  H         4.8922471874       14.6773812000        6.4252069867
  O        12.0170183939       15.1285692000        6.8687126330
  H        11.6282928011       14.5802580000        5.9852747968
  H        13.0066524023       14.7154332000        7.1545891463
  O        12.2587788882       17.7757200000        5.3977720919
  H        12.2370424813       18.8833956000        5.4650060126
  H        11.3546621213       17.4198432000        4.8612242285
  O         9.1592095714        1.1147424000        6.1827413513
  H         9.6234799899        1.9890324000        5.6804721995
  H         8.7483965555        0.4234644000        5.4176246275
  O         4.4877889521        1.2037116000        7.1838385488
  H         4.0637143394        2.1126108000        7.6595053029
  H         3.8397269649        0.8920476000        6.3382528806
  O        12.2023044659        0.3821508000        8.2533608192
  H        11.3650588082       -0.2435328000        7.8797360984
  H        12.0977258875        1.4142660000        7.8582953599
  O        17.4892915261       11.5723380000        5.6270027035
  H        18.5028531731       11.9206044000        5.3378174342
  H        17.2092445345       10.6942428000        5.0083976928
  O         7.1835047611       18.1218120000        8.0161891934
  H         6.6486687608       18.0368292000        8.9851252831
  H         7.7385761107       17.1815652000        7.8163403345
  O        16.7827256018        2.7881244000        5.9327317524
  H        15.7088124990        2.7834132000        6.2133142562
  H        17.1723045342        3.8265816000        5.9773337825
  O        13.1253288455        8.3000472000        5.9826277920
  H        14.0136994456        8.5899672000        5.3836106165
  H        12.3768961416        7.8133440000        5.3229942076
  O         8.2157839803        8.0084964000        7.6141091714
  H         7.2740108263        8.1063444000        8.1936708620
  H         8.7740063617        7.1149992000        7.9636461490
  O        15.3049123317       18.0308496000        7.3210857453
  H        14.7830131968       19.0102356000        7.3458352397
  H        14.5558651878       17.2120068000        7.3416000321
  O         8.9521134484       14.7192384000        5.5552688747
  H         8.7896374238       15.4465752000        6.3776932514
  H         8.0607430678       14.0647440000        5.4586532012
  O        16.5549769545        9.0270216000        7.9426024612
  H        17.6323023645        9.2917548000        7.9825722330
  H        15.9689447581        9.9110964000        7.6154326738
  O         7.4162214706        3.8258568000        7.2865423333
  H         7.6822457668        2.7765276000        7.5313902729
  H         7.9943151555        4.1567280000        6.3984722387
  O         1.4963633160        6.3579456000        7.0905316313
  H         2.1950112108        6.9974004000        7.6695639210
  H         1.3937444122        6.7600284000        6.0609791327
  O         1.3535390596       16.8534120000        7.3635701716
  H         2.1728248147       16.1740932000        7.0488413065
  H         1.7779907520       17.7048708000        7.9355878986
  O         0.9203911488        2.3271516000        6.7711705079
  H         1.4018965835        2.6391780000        7.7213128639
  H        -0.1810270273        2.3006964000        6.9057706996
  O        18.3363673983       17.9572824000        6.7944641497
  H        18.8986495110       17.4390504000        7.5991535946
  H        18.7164436558       17.6264112000        5.8054108238
  O         3.3984685836        9.7710288000        6.4469124257
  H         2.3233169302        9.6204516000        6.2162259615
  H         3.6135138472        9.3961260000        7.4693180114
  O        -0.5325647444        4.9010976000        5.1944821269
  H        -1.0693087080        4.2520392000        4.4715851289
  H         0.5477247821        4.6459680000        5.1893204676
  O        12.2245758347        4.4508156000        5.9188349775
  H        11.2851202921        4.0065132000        5.5287988272
  H        13.0539647913        3.7220292000        5.8044843722
  O         6.2134953936        8.0550648000        5.4296684992
  H         5.2779123171        7.4900832000        5.6227674959
  H         6.2025146597        8.9994792000        6.0128036462
  O         6.6915933844       11.6363016000        6.6998337298
  H         6.4569503714       11.8542852000        7.7626061380
  H         7.6056688028       11.0093496000        6.6438495793
  O        12.2839178735       11.9327448000        5.8783358048
  H        12.6809170463       10.9741968000        5.4837997464
  H        11.5190754240       12.3317472000        5.1796589003
  O        16.4173627293       14.5505412000        6.6386879200
  H        15.7105312912       14.9366784000        5.8748946986
  H        16.9326539371       15.4021812000        7.1298396519
  O        18.8380852025        6.6587376000        7.5364195819
  H        19.4584293010        5.7733944000        7.7882820841
  H        17.7668806132        6.3684552000        7.5238463093
  O        -1.0843051607       12.3621888000        7.8062817165
  H        -0.3045564795       12.7012140000        7.0926492351
  H        -1.6359437914       13.2424584000        8.1971119682
  O        -0.3756340928        9.3691272000        6.8691096837
  H        -0.3940696280        8.8262520000        5.9011000456
  H         0.2752932573        8.8260708000        7.5856538703
  O        20.3198664453       14.6755692000        5.4480651822
  H        19.4975591381       14.7899064000        6.1847266049
  H        20.0080776262       13.9674396000        4.6521108530
     422
Lattice="20.920      0.000      0.000      0.000     18.120      0.000     -2.096      0.000     13.235" Properties="species:S:1:pos:R:3" Step=200 Time=100.000 Energy=-4511.5944163395
 Si         1.0033078923        1.5210670018       -2.6401023896
  O         4.9865105354        2.4296044370       -3.1423942271
  O         0.9786511376        1.8444105275       -1.0415167224
 Si         3.6328642249        6.1241226530       -2.6903932894
  O         2.3315849260        6.9489154330       -3.3588214346
  O         3.6657443385        6.4853026739       -1.0984833218
 Si         4.2118431747        1.5922307543        2.7249756727
  O         0.3326213232        2.4769056558        3.3810213654
  O         4.2459205910        1.8295524730        1.1170600502
 Si         1.5796586398        6.1316346569        2.7045843685
  O         2.7596759445        7.0656699371        3.4822832936
  O         1.5971374093        6.4666188531        1.1321414586
 Si         4.2238043581        7.4646545644        2.7772213036
  O         0.2231438500        6.5930911940        3.4196000061
  O         4.2961934436        7.2949815204        1.1605756080
 Si         1.6968701186        3.0685265352        2.7131456437
  O         2.9546154070        2.3655645428        3.4906120062
  O         1.7039323386        2.7938481276        1.1031976223
 Si         0.9168593935        7.4884354688       -2.6965491029
  O         4.9868609099        6.7169086252       -3.3262210595
  O         0.9556112537        7.1530478092       -1.1415489880
 Si         3.5869217773        2.9341182643       -2.5874698534
  O         2.3115154960        2.2152043836       -3.2538455515
  O         3.6284619242        2.7134439942       -1.0349907408
 Al         0.0377004335        3.0768796763        0.0338962231
 Al         2.5601331489        7.5824489621        0.0056517791
 Al        -0.0743192478        5.9857623969        0.0451987284
 Al         2.6461094458        1.5063657873       -0.0001359809
  O         0.9126341539       -0.0601673757       -3.0409580427
  O         3.3480240698        4.5474807534       -2.9186982572
  O         3.8945756242        0.0256858934        3.1646443531
  O         1.8670496082        4.6203225631        3.0776096414
  O         0.5376565470        4.5913467458       -1.0657399320