ITEM: TIMESTEP
0
ITEM: NUMBER OF ATOMS
8
ITEM: BOX BOUNDS pp pp pp
0.0000000000000000e+00 5.4300000000000000e+00
0.0000000000000000e+00 5.4300000000000000e+00
0.0000000000000000e+00 5.4300000000000000e+00
ITEM: ATOMS id type x y z vx vy vz
1 1 0.0000 0.0000 0.0000 0.0012 -0.0003 0.0008
2 1 1.3575 1.3575 1.3575 -0.0005 0.0010 -0.0002
3 1 0.0000 2.7150 2.7150 0.0007 -0.0001 0.0005
4 1 1.3575 4.0725 4.0725 -0.0003 0.0006 0.0001
5 1 2.7150 0.0000 2.7150 0.0009 -0.0004 -0.0007
6 1 4.0725 1.3575 4.0725 -0.0002 0.0003 0.0009
7 1 2.7150 2.7150 0.0000 0.0004 -0.0008 0.0002
8 1 4.0725 4.0725 1.3575 -0.0006 0.0001 -0.0003
ITEM: TIMESTEP
100
ITEM: NUMBER OF ATOMS
8
ITEM: BOX BOUNDS pp pp pp
0.0000000000000000e+00 5.4300000000000000e+00
0.0000000000000000e+00 5.4300000000000000e+00
0.0000000000000000e+00 5.4300000000000000e+00
ITEM: ATOMS id type x y z vx vy vz
1 1 0.0120 -0.0030 0.0080 0.0015 -0.0005 0.0010
2 1 1.3450 1.3675 1.3495 -0.0003 0.0012 -0.0001
3 1 0.0070 2.7140 2.7250 0.0005 -0.0002 0.0007
4 1 1.3525 4.0785 4.0735 -0.0001 0.0008 0.0003
5 1 2.7240 -0.0040 2.7080 0.0011 -0.0006 -0.0005
6 1 4.0705 1.3595 4.0815 -0.0004 0.0005 0.0011
7 1 2.7190 2.7060 0.0020 0.0006 -0.0010 0.0004
8 1 4.0685 4.0725 1.3495 -0.0008 0.0003 -0.0001
ITEM: TIMESTEP
200
ITEM: NUMBER OF ATOMS
8
ITEM: BOX BOUNDS pp pp pp
0.0000000000000000e+00 5.4300000000000000e+00
0.0000000000000000e+00 5.4300000000000000e+00
0.0000000000000000e+00 5.4300000000000000e+00
ITEM: ATOMS id type x y z vx vy vz
1 1 0.0240 -0.0060 0.0160 0.0014 -0.0004 0.0009
2 1 1.3325 1.3775 1.3415 -0.0001 0.0014 0.0001
3 1 0.0140 2.7130 2.7350 0.0003 -0.0003 0.0009
4 1 1.3475 4.0845 4.0745 0.0001 0.0010 0.0005
5 1 2.7330 -0.0080 2.7010 0.0013 -0.0008 -0.0003
6 1 4.0685 1.3615 4.0905 -0.0006 0.0007 0.0013
7 1 2.7230 2.6980 0.0040 0.0008 -0.0012 0.0006
8 1 4.0625 4.0725 1.3415 -0.0010 0.0005 0.0001
